/*--------------------------------*- C++ -*----------------------------------*\
  =========                 |
  \\      /  F ield         | OpenFOAM: The Open Source CFD Toolbox
   \\    /   O peration     | Website:  https://openfoam.org
    \\  /    A nd           | Version:  8
     \\/     M anipulation  |
\*---------------------------------------------------------------------------*/
FoamFile
{
    version     2.0;
    format      ascii;
    class       volVectorField;
    location    "7";
    object      U;
}
// * * * * * * * * * * * * * * * * * * * * * * * * * * * * * * * * * * * * * //

dimensions      [0 1 -1 0 0 0 0];

internalField   nonuniform List<vector> 
4280
(
(3.21264e-05 1.51889e-05 -7.06788e-23)
(0.000652049 0.00111424 2.30859e-22)
(1.80243e-05 3.12072e-05 -1.02181e-21)
(0.000308977 0.000401482 -7.00443e-22)
(0.00054054 0.000951267 3.66745e-22)
(0.000561925 0.00101069 0)
(0.000552486 0.000925203 0)
(0.00062259 0.00107283 2.01301e-22)
(0.000318708 0.000562088 -4.41829e-22)
(0.000572302 0.00107893 1.27303e-22)
(3.90433e-05 -2.2044e-08 4.53925e-24)
(0.000670963 0.00125101 -3.27102e-22)
(3.60394e-05 8.2414e-05 -1.04779e-21)
(0.000587939 0.000458481 -1.33925e-21)
(0.000336823 0.000601309 -3.66332e-22)
(0.000630587 0.00108439 -1.93815e-22)
(0.00046265 0.000841982 4.42806e-22)
(0.000327219 0.00104381 -6.31357e-22)
(0.000190359 0.000763913 1.64047e-22)
(0.000622975 0.00107535 0)
(3.48516e-05 -2.60747e-06 -3.50593e-25)
(0.000688494 0.00125245 0)
(4.06292e-05 -6.80432e-05 5.79107e-22)
(0.000711047 0.00124518 0)
(0.00058629 0.00103742 -5.61426e-22)
(0.000509045 0.000873689 -8.44756e-23)
(0.00069427 0.00124973 0)
(0.000578169 0.00100734 -3.46542e-22)
(0.000605895 0.00105636 -2.57338e-22)
(0.000465218 0.00096777 2.99646e-22)
(0.000549563 0.00095255 -7.60432e-22)
(0.00047763 0.00111861 0)
(0.000513308 0.000915977 -4.61521e-22)
(0.000491702 0.000893225 -8.92932e-22)
(3.53753e-05 0.000321468 8.3158e-22)
(0.000570424 0.00101624 5.93278e-22)
(0.000727399 0.00124186 -1.31628e-23)
(0.000450528 0.0008428 6.49786e-22)
(0.000700414 0.00130334 -1.39337e-22)
(0.000575101 0.00100225 5.65509e-24)
(0.000676924 0.000594217 2.41614e-22)
(0.000621635 0.00130145 -4.51941e-22)
(0.00057831 0.000801507 0)
(0.000565847 0.000905047 0)
(0.000528269 0.000970089 -1.73728e-22)
(0.000504242 0.00091977 0)
(0.000925533 0.0011647 -1.83409e-22)
(0.000620869 0.00109543 -2.04127e-22)
(0.00054577 0.000947043 9.37168e-24)
(0.000879456 0.00148083 3.6574e-22)
(0.000374303 0.000674426 0)
(0.000630117 0.00108099 0)
(0.000559097 0.00097842 -2.52006e-22)
(9.14088e-05 0.000691954 -7.83563e-22)
(0.000154253 0.000628721 -3.34472e-22)
(0.000629461 0.00108404 1.84117e-22)
(9.25627e-05 -0.00040406 -2.5684e-22)
(0.000691463 0.00122698 -3.96992e-22)
(0.000521686 0.000901411 -6.02655e-24)
(0.000620651 0.00109565 2.01833e-22)
(0.000572422 0.00099554 5.06585e-24)
(0.000614418 0.00107767 3.09925e-22)
(0.000684124 0.00122446 8.82155e-22)
(0.000567099 0.0010136 -8.73479e-22)
(0.000572723 0.000992785 7.37204e-22)
(0.000709603 0.00125012 0)
(0.000811954 0.00081934 0)
(0.000169579 0.000604456 -4.74052e-22)
(0.000571003 0.00100536 -1.79621e-22)
(0.00062158 0.00108872 -1.8692e-22)
(0.000522872 0.000905527 -1.14263e-22)
(0.000617829 0.00108143 -2.62088e-22)
(0.000723818 0.00124247 -2.35392e-22)
(0.00069172 0.00121247 4.46034e-22)
(0.000832861 0.000441129 8.74085e-26)
(0.000197018 0.000737931 -8.74136e-22)
(0.000363047 0.000639405 0)
(0.000523134 0.000934635 0)
(0.000625123 0.00107695 5.87716e-24)
(0.000214501 0.000840509 -2.32446e-22)
(0.000565629 0.0010795 5.22464e-23)
(0.000702941 0.00124992 5.92133e-23)
(0.000362031 3.69383e-05 -1.7506e-21)
(0.000548017 0.000953492 -5.14255e-24)
(0.000549811 0.000955891 7.62828e-22)
(0.000904079 0.000851485 -8.91243e-22)
(0.000681098 0.00126468 1.38133e-22)
(0.000507066 0.000883376 1.07507e-22)
(0.000222121 0.000883267 -4.4286e-22)
(0.000334112 0.000981459 0)
(0.000712895 0.00125221 2.59362e-22)
(0.000319077 0.00100047 1.52973e-21)
(0.000467426 0.000913388 1.78887e-23)
(0.000507039 0.000890352 -1.686e-22)
(0.000514301 0.000909533 0)
(0.00053126 0.000894143 3.29404e-22)
(0.000771274 0.00137698 0)
(0.000572515 0.00100247 -1.96865e-22)
(0.000674953 0.00113531 4.56021e-24)
(0.000520186 0.000899796 -7.66074e-22)
(0.000571862 0.000993552 -4.65282e-22)
(0.000659006 0.00129217 7.21879e-24)
(0.000714022 0.00125675 0)
(0.000526355 0.000913462 -3.13069e-22)
(0.000621202 0.00109244 1.8272e-22)
(0.000567598 0.000989867 -4.84918e-24)
(0.000535609 0.000920976 -4.70611e-22)
(0.000632834 0.00113495 -8.21347e-22)
(0.000350902 0.000624328 0)
(0.000383534 0.000699393 0)
(0.000287086 0.000744548 5.35236e-22)
(0.00052936 0.00091224 5.31405e-22)
(0.000548333 0.00095123 -7.68616e-22)
(0.0004953 0.000806291 -5.39826e-22)
(4.31911e-05 -2.42431e-06 -4.58364e-24)
(0.000525849 0.000906389 0)
(8.55599e-05 -0.000203515 -1.11006e-21)
(0.000530764 0.000947267 0)
(0.000549972 0.000725179 6.27177e-22)
(0.000561935 0.000432313 0)
(0.000418879 0.000913601 -3.00065e-22)
(0.00051027 0.000905166 1.36894e-22)
(0.000707642 0.00124441 3.15212e-22)
(0.000530436 0.00090688 2.75875e-22)
(0.000517412 0.000930702 0)
(0.00047293 0.000996646 4.34873e-22)
(0.000394143 0.000699376 0)
(0.00050893 0.000941787 -2.1239e-22)
(2.34511e-05 0.000234101 1.44523e-22)
(0.000788313 0.00140814 -3.66958e-23)
(0.0002734 0.000489124 -3.73807e-22)
(0.000648188 0.00114179 2.26058e-22)
(0.000598518 0.00108342 1.28595e-22)
(0.000607794 0.00103553 -3.03533e-22)
(0.000521761 0.000937157 1.10415e-21)
(0.000186017 0.00119576 0)
(0.000717205 0.00124678 0)
(0.000816128 0.0013627 1.51067e-25)
(0.000273341 0.00048213 -2.03455e-22)
(0.000715144 0.00125188 -5.32659e-24)
(0.000533741 0.000924364 -7.72715e-24)
(0.000495102 0.000883915 0)
(0.000249977 0.00045824 1.57779e-22)
(0.000558622 0.000988645 0)
(0.000543814 0.000943958 -4.14912e-22)
(0.000630477 0.00107411 1.30937e-21)
(0.000501039 0.000141177 5.17104e-22)
(0.000624959 0.00114555 3.75171e-24)
(0.000426156 0.000613698 0)
(0.000539534 0.000934312 0)
(0.000333056 0.000880058 0)
(0.00159791 0.000127165 0)
(0.000583786 0.00102776 -3.0918e-22)
(0.000500267 0.000582681 0)
(0.000365037 0.00118684 -8.90654e-24)
(0.000713702 0.00125277 -9.32405e-24)
(0.000655971 0.000797951 0)
(0.0005603 0.00095146 3.01722e-22)
(0.000522015 0.000887354 4.37481e-22)
(0.000265272 0.000470098 0)
(0.000618619 0.00103369 0)
(0.000618254 0.00126878 8.56392e-22)
(0.000499827 0.000113947 7.88644e-22)
(0.000423029 0.00105088 -9.85999e-22)
(0.000587935 0.00132509 0)
(0.000693698 0.000943053 1.49245e-23)
(0.000718136 0.00125187 1.68168e-22)
(0.000594707 0.00100508 7.697e-24)
(0.000628966 0.00107766 2.16986e-22)
(0.000724037 0.00125952 3.27827e-23)
(0.000543107 0.000912724 0)
(0.000575868 0.00103886 1.02971e-22)
(0.000546756 0.000946981 4.88204e-24)
(0.000338223 0.00161665 -3.78002e-23)
(0.000996656 0.000417511 -8.43728e-22)
(0.000559646 0.00108271 6.04668e-24)
(0.000912392 0.000396967 0)
(0.000219524 0.000576971 7.54448e-22)
(0.000575958 0.00103501 -7.14922e-23)
(0.000621152 0.0010651 -2.32152e-22)
(0.000601405 0.000695883 -6.41613e-22)
(0.000791795 0.000741922 3.43986e-22)
(0.000155691 0.000738274 -6.54629e-22)
(0.000776258 0.00142654 -4.36197e-22)
(0.000977925 0.00150931 4.01991e-22)
(0.000541836 0.000957123 0)
(0.000512586 0.000928923 1.00681e-23)
(0.000816342 7.52165e-05 -8.98554e-23)
(0.0006902 0.00123746 2.90597e-22)
(0.000507431 0.000929902 -3.16487e-23)
(0.000209934 0.000618975 1.07403e-22)
(0.000464733 0.00099719 0)
(0.000547583 0.000943654 -9.61319e-24)
(0.000440451 0.000698662 -2.58846e-23)
(0.000570502 0.00103625 -5.15436e-23)
(0.000599842 0.00110768 -7.28523e-22)
(0.000602658 0.00103543 0)
(0.000652684 0.00111105 -4.28842e-22)
(0.000729851 0.00124133 0)
(0.00079015 0.00141666 -5.28646e-22)
(0.000486173 0.000709325 -4.51613e-24)
(0.000932763 0.000896938 -6.36081e-22)
(0.00050489 0.000893298 0)
(0.000633691 0.00114565 0)
(0.000652261 0.00113431 -5.84039e-22)
(0.000689437 0.00124478 -1.99217e-22)
(0.000530221 0.000915884 8.6393e-22)
(0.000697287 0.00124442 -2.422e-22)
(0.000532039 0.000931871 -3.77806e-22)
(0.000689665 0.00119718 3.44449e-22)
(0.000705689 0.00121873 -7.38239e-22)
(0.000277815 0.000612664 -6.30037e-23)
(0.000341133 0.000605498 5.08652e-22)
(0.000428662 0.000567835 1.25613e-21)
(0.000601666 0.00103869 0)
(0.000589173 0.00110451 5.22494e-22)
(0.000982713 0.00017422 -6.97758e-22)
(0.000669151 0.00111665 -1.36658e-22)
(0.000700881 0.00125536 1.96919e-22)
(0.000311721 0.000777181 5.59856e-22)
(0.00053296 0.000897341 5.01173e-23)
(3.09994e-05 -1.35958e-05 -2.67546e-24)
(0.000519959 0.000905373 1.09331e-21)
(0.000852346 0.000858038 2.92312e-22)
(0.000269659 0.000663172 -5.10238e-22)
(0.000560281 0.000737158 0)
(0.00102834 0.000410638 6.3454e-22)
(0.000335653 0.000590413 -3.3706e-22)
(0.000575129 0.00101195 0)
(0.000528339 0.00102873 -5.68531e-22)
(0.000957365 7.01603e-05 3.03678e-22)
(0.000548599 0.000948497 -2.2432e-22)
(0.000886578 4.2748e-05 -1.61665e-22)
(0.0004404 0.000823223 -4.47352e-22)
(0.000541693 0.000931878 -7.98992e-22)
(0.000504694 0.000222196 -5.64355e-22)
(0.000505637 0.000923728 -5.51618e-22)
(0.000665359 0.0011371 -3.09748e-22)
(0.000359336 0.000865518 -8.53235e-22)
(0.000716079 0.00123083 -1.01393e-22)
(0.000619369 0.00108203 -1.57982e-22)
(0.000552189 0.000951776 4.25696e-22)
(0.000718238 0.00125377 -1.30788e-22)
(0.000468993 0.00104292 -8.8684e-22)
(0.000730708 0.00122335 -1.77396e-22)
(0.000589961 0.00115959 0)
(0.000432519 0.000748465 1.64066e-23)
(0.00080298 0.00139969 1.67869e-23)
(0.000585147 0.00102845 1.6997e-22)
(0.000513192 0.00091096 1.36278e-22)
(0.000418396 0.00121192 5.45976e-22)
(0.000515802 0.000892777 0)
(0.000558118 0.000982373 5.34638e-22)
(0.000506967 0.000877046 -1.86145e-22)
(0.000772568 0.00146984 3.14042e-23)
(0.000569685 0.00101177 -9.85814e-24)
(0.000475387 0.000520533 9.66894e-22)
(0.000532014 0.000914845 0)
(0.000623894 0.000461165 6.34653e-22)
(0.000854056 0.00100081 1.53855e-21)
(0.000655866 0.00123061 0)
(0.00038248 0.000244918 -6.13417e-22)
(5.02067e-05 0.000613732 0)
(0.000514477 0.000898335 1.01969e-22)
(0.00112129 0.000373886 -1.30647e-21)
(0.000588458 0.000997477 5.23448e-24)
(0.000495066 0.000859895 4.05157e-22)
(0.000740312 0.00126536 -3.52878e-22)
(0.000516858 0.000924173 0)
(0.000945342 0.000857987 9.46389e-22)
(0.00046333 0.00134786 2.78729e-23)
(0.000289464 0.000499835 2.88958e-22)
(0.000717226 0.00125422 -2.07148e-22)
(0.000553433 0.000942516 7.77218e-24)
(0.000545379 0.000922325 -3.85089e-22)
(0.000717515 0.00125739 -2.18606e-22)
(0.000715639 0.000587492 1.17928e-23)
(0.000620653 0.00108527 -3.49708e-22)
(0.000686464 0.00122045 -3.32291e-22)
(0.000769647 0.000354982 1.34504e-21)
(0.000713953 0.00123409 -1.13669e-21)
(0.000545452 0.00098884 -1.61705e-22)
(0.000520973 0.000932954 -2.15663e-22)
(0.000399756 0.00024343 0)
(0.000350194 0.000567268 7.71891e-22)
(2.12809e-05 -1.20258e-05 2.25013e-24)
(0.00102652 0.00143176 -1.17843e-21)
(0.00081173 0.00140865 0)
(0.00063832 0.00109426 1.34141e-22)
(0.000578187 0.00103832 2.26594e-22)
(0.000588176 0.00111602 -1.98054e-22)
(0.000705727 0.00149938 -2.99361e-23)
(0.000443401 0.000869917 0)
(0.000885823 0.00140753 -5.73642e-22)
(0.000322497 0.000542849 4.32897e-22)
(0.000433729 0.000826958 2.07971e-22)
(0.000463777 0.000988857 -4.19281e-23)
(0.000679454 0.0011931 9.25631e-22)
(0.000560888 0.000983087 1.63803e-22)
(0.000353896 0.000642878 1.66014e-22)
(0.000427261 0.000942333 9.61978e-22)
(0.000932402 0.000114866 -1.01117e-21)
(0.000719887 0.00125002 -9.17218e-22)
(0.000470119 0.000292906 4.11475e-22)
(0.00068618 0.00126022 2.40927e-23)
(0.00070647 0.00124842 1.86637e-22)
(0.000980865 6.1853e-05 0)
(0.000947039 9.13211e-05 2.52989e-23)
(0.000771987 0.00142017 1.22222e-22)
(0.000584931 0.00111629 9.03261e-23)
(0.000544517 0.000938694 -6.00814e-25)
(0.000697793 0.000102488 -1.70749e-21)
(0.000566672 0.000986103 2.47826e-22)
(0.000449703 0.00098487 8.8409e-22)
(0.000590638 0.000869058 5.49509e-22)
(0.00073736 0.00132243 -5.22595e-23)
(1.6026e-05 -2.1122e-05 8.42388e-24)
(0.000809492 0.00089603 4.34245e-22)
(0.000707265 0.00125645 -1.43882e-22)
(0.00058601 0.00104007 -5.33844e-23)
(0.000222227 0.000814592 1.20558e-24)
(0.00103353 0.000154577 0)
(0.000230423 0.000993347 1.38586e-23)
(0.000535132 0.000899192 0)
(0.000494196 0.000877737 1.64422e-22)
(0.00100911 0.000191567 0)
(0.000449962 0.000830315 -1.4131e-22)
(0.000267257 0.000759348 -7.6797e-22)
(0.000509218 0.000810638 3.78504e-22)
(0.000605282 0.00101317 5.30841e-22)
(0.000265365 0.000341602 1.98389e-21)
(0.000674885 0.00125028 -5.33085e-23)
(0.000541421 0.000959238 -5.52803e-22)
(0.000490932 0.000942756 6.37666e-22)
(0.000545667 0.00103292 3.73827e-22)
(0.000605802 0.00115767 0)
(0.000316667 0.000536148 -2.07445e-22)
(0.000660584 0.00114233 4.14448e-22)
(0.000797868 0.00142376 7.9269e-22)
(0.00071766 0.00125871 0)
(0.000102416 -8.77092e-05 1.35746e-21)
(0.000284922 0.000497043 0)
(0.000656773 0.0010856 9.69166e-22)
(0.000531316 0.000885624 3.866e-22)
(0.000576833 0.00107955 6.12489e-23)
(0.000718768 0.00125712 -2.57612e-22)
(0.000310243 0.000892765 3.82798e-22)
(0.000329721 0.000707336 -2.4256e-22)
(0.000591279 0.00108103 0)
(0.000642864 0.00107057 1.66334e-22)
(3.4458e-05 0.000800112 0)
(0.000253595 0.000809613 -3.43812e-22)
(0.00135115 0.000223539 0)
(0.000680105 0.00129834 -1.96678e-22)
(0.000757861 0.000107147 3.58007e-23)
(0.000668823 0.0011879 4.92262e-22)
(0.000726031 0.00125901 -1.38475e-22)
(0.00029014 0.000859049 4.37466e-22)
(0.000714261 0.00126109 -1.35368e-22)
(0.000648212 0.00107704 -1.65657e-22)
(4.47252e-05 0.000185339 4.74666e-22)
(0.000533399 0.00106611 6.43085e-24)
(0.000703852 0.00117009 -4.55936e-22)
(0.000539385 0.000926362 -2.92235e-22)
(0.000616536 0.00109189 0)
(0.000552022 0.00101872 0)
(0.000519508 0.000877712 -8.31798e-22)
(0.000521534 0.0010092 0)
(0.000329073 0.000539509 -6.57877e-22)
(0.000588719 0.0010443 -1.80193e-22)
(0.000575867 0.00106738 -3.09873e-23)
(0.000465062 0.000791388 2.72879e-22)
(0.000810791 0.00140314 -5.22757e-23)
(0.00034607 0.000641686 8.23734e-22)
(0.000541151 0.000938252 0)
(0.00049067 0.00106727 -2.89697e-22)
(0.000540692 0.000885779 3.2907e-23)
(0.000135311 0.000160624 0)
(0.000613805 0.0011775 6.84895e-23)
(0.000537143 0.000954668 3.26299e-24)
(0.00073181 3.85251e-05 2.58177e-24)
(0.000334157 0.000923522 5.66703e-24)
(3.40518e-05 1.55113e-07 8.9443e-22)
(0.000302606 0.000945898 3.58132e-22)
(0.000623212 0.00119528 -2.26245e-22)
(0.00073425 0.00139182 -6.21324e-22)
(0.000471614 0.000856476 -6.37861e-22)
(0.00056844 0.000969514 -3.62804e-23)
(0.000484046 0.000994415 0)
(0.000978282 0.000754766 5.40503e-22)
(-0.000165653 0.00104744 -4.09614e-22)
(0.000639943 0.00126998 0)
(0.000302034 0.000897686 -8.88896e-22)
(0.000491033 0.0005117 6.75059e-22)
(0.000586503 0.00105033 0)
(0.000646285 0.00107774 3.65825e-22)
(0.000640545 0.00114553 -5.87635e-23)
(0.000313943 0.000353877 -2.09402e-21)
(0.000438093 0.000433675 -1.42981e-22)
(0.00057834 0.00101047 -3.42524e-22)
(0.000381987 0.000884411 3.31859e-22)
(0.000580968 0.00101346 -1.93582e-22)
(0.00064134 0.00114799 -1.44556e-22)
(0.000597011 0.00108265 0)
(0.000747416 0.00122487 -4.00738e-24)
(0.000335693 0.000963245 0)
(0.000648445 0.00114238 4.23827e-24)
(0.000624735 0.00105252 1.60374e-22)
(0.000584135 0.00104028 -2.58902e-22)
(0.000781124 0.00142282 4.30161e-22)
(0.000288742 0.000501237 2.05826e-22)
(4.47258e-05 -5.69488e-07 3.39861e-23)
(0.000423735 0.00116352 -4.92808e-22)
(0.000539779 0.00090567 3.59885e-22)
(0.000735861 0.00124006 4.14694e-24)
(0.000732266 0.00154007 0)
(1.97109e-05 -3.06063e-05 -5.73119e-22)
(0.000475203 0.000825565 -7.64068e-22)
(0.000642227 0.00121034 0)
(0.000584651 0.000826743 -4.31583e-22)
(0.000513257 0.000970444 0)
(0.000355383 0.00084022 7.41282e-22)
(0.000634823 0.00110099 3.64209e-22)
(0.000843388 0.0011432 -4.3093e-22)
(0.000583023 0.000989781 0)
(0.000804211 0.00142329 6.14984e-22)
(0.000651668 0.00108591 1.69846e-22)
(0.000529045 0.000993598 2.71923e-22)
(0.000546247 0.000926008 -4.62728e-22)
(0.00055769 0.00105569 -2.15218e-22)
(0.000743895 0.00125867 1.77411e-22)
(0.00023035 0.000846869 -1.37795e-21)
(0.000260678 0.000858306 -4.05393e-22)
(0.000469926 0.000868138 -4.13297e-22)
(0.000731668 0.000109962 -3.29653e-22)
(0.00064436 0.000491504 1.68083e-21)
(0.000907783 0.000206554 -1.4461e-22)
(0.00058553 0.00101889 -5.65245e-24)
(0.000384013 0.000552902 -7.34748e-22)
(0.000856891 0.000479626 1.24826e-21)
(0.000726059 0.00125626 -3.88641e-22)
(0.000521672 0.000894439 0)
(0.000541307 0.000981482 6.44393e-22)
(0.000333819 0.000857092 0)
(0.000706266 0.00121697 -3.0506e-22)
(0.000674839 0.00122386 -3.90131e-24)
(0.000647692 0.000640201 -9.02452e-22)
(0.000473945 0.000910887 4.80255e-22)
(0.000656192 0.000721657 -8.22387e-22)
(0.000481346 0.000963129 -3.09473e-22)
(0.000414827 0.000502303 2.05263e-22)
(0.000629797 0.000662392 6.41344e-22)
(0.00080992 0.00140982 1.74245e-23)
(0.000598439 0.000985326 1.74071e-23)
(0.000521211 0.00114688 0)
(0.000378988 0.000949859 6.04064e-22)
(0.00058757 0.00106309 -1.03692e-21)
(0.000402805 0.00100457 -6.86899e-22)
(0.000643999 0.000737291 9.75923e-22)
(0.00021189 0.000471065 4.22375e-22)
(0.000559896 0.00133839 -2.71564e-22)
(0.000378119 0.000181275 0)
(0.000636647 0.000796448 -2.54977e-21)
(2.08857e-05 2.72779e-05 -4.29471e-22)
(0.000392848 0.000654687 -1.34724e-22)
(0.000578226 0.00106811 -1.52191e-21)
(0.000553873 0.00104522 2.10357e-21)
(0.00040146 0.000790276 0)
(0.000452793 0.00091617 -1.14146e-21)
(0.000571519 0.00135079 -4.4797e-23)
(0.000650362 0.00124242 6.76068e-24)
(2.44718e-05 0.000742593 0)
(0.000667295 0.000682609 -2.37378e-21)
(0.000644579 0.0011603 -1.37472e-22)
(0.000760373 0.00152394 -5.68659e-24)
(0.000609904 0.000708717 -6.84004e-22)
(0.000544247 0.000987168 -7.90982e-22)
(0.000521215 0.00105345 -4.64189e-22)
(0.000538006 0.000935831 -4.42738e-24)
(0.000552167 0.000991802 -5.75313e-25)
(0.000604379 5.19782e-05 -1.57608e-22)
(0.00027626 0.000739626 -1.09272e-21)
(0.000652154 0.00110985 -4.31465e-22)
(0.000536644 0.000943252 -1.07233e-23)
(0.000559795 0.000975524 -1.93513e-22)
(0.000559387 0.00107671 -6.8826e-23)
(0.000583365 0.0010411 0)
(0.000781263 0.000237791 9.70794e-22)
(0.00058027 0.00100728 -4.06564e-22)
(0.00062127 0.000429006 5.4724e-22)
(0.000649656 0.0011429 1.25941e-21)
(0.000753552 0.000897853 0)
(0.00109024 0.000366767 6.25271e-22)
(0.000562218 0.0010414 3.73841e-25)
(5.24992e-05 9.96868e-05 -5.49895e-22)
(0.000629703 0.00104011 0)
(0.00024216 0.000526038 5.06233e-22)
(0.000759903 0.00141044 -7.42663e-22)
(0.000610121 0.00105757 0)
(0.000581665 0.00104919 0)
(0.000724817 0.00134931 0)
(0.000890561 0.000368342 -5.826e-22)
(0.000462805 0.00102038 0)
(0.000507295 0.000712904 -1.69277e-21)
(0.000389491 0.000961789 -2.04069e-21)
(0.0012746 0.00133437 -6.9636e-22)
(0.000633976 0.00106466 -1.5982e-22)
(0.000714257 0.00125703 -8.33838e-25)
(0.000523183 0.000880908 5.1957e-22)
(0.000555169 0.000351309 -4.02447e-22)
(0.000695384 0.00121784 0)
(0.00050621 0.000688646 -5.4187e-22)
(0.000548963 0.000704346 7.31924e-22)
(3.31757e-05 -1.19101e-05 0)
(0.000552045 0.00104374 -1.97539e-22)
(0.000538078 0.000914744 1.69914e-22)
(0.000357446 0.000792446 0)
(0.000811944 0.000199216 4.07935e-22)
(0.000660133 0.0011898 0)
(0.000409347 0.000937333 2.68334e-22)
(0.000788807 0.0014138 9.39624e-22)
(0.000484313 0.000953049 -9.12358e-22)
(0.000595736 0.00113938 -5.76016e-23)
(0.000396512 0.0010044 -1.34395e-21)
(0.000488184 0.000577598 -1.49884e-21)
(0.000616993 0.000761814 -3.36717e-25)
(0.000436177 0.00106855 1.03663e-22)
(0.000636791 0.00104183 7.59403e-23)
(0.000565679 0.000367417 8.13758e-22)
(0.000682378 0.000880303 -2.13921e-21)
(0.00039043 0.00065223 0)
(0.00066722 0.00121598 4.93084e-22)
(0.0005689 0.000988999 -1.94216e-21)
(0.000424383 0.000940889 0)
(0.000879494 0.000346053 1.31496e-21)
(0.000587599 0.00104468 0)
(0.000763834 0.00139003 -1.00848e-22)
(0.000812027 0.00141279 -5.11904e-22)
(0.000754141 0.00141398 4.16527e-22)
(0.000790728 0.00141518 -6.64708e-22)
(0.000669786 0.00124772 -1.60312e-22)
(0.000458752 0.000237307 3.92803e-25)
(0.000499509 0.000432946 -1.1003e-21)
(0.000590297 0.000247396 0)
(0.000570971 0.00108178 9.74647e-22)
(0.000890251 8.53709e-05 -3.65834e-22)
(0.000649015 0.00113157 0)
(0.000637743 0.00118796 0)
(0.00020809 0.000405439 4.30249e-22)
(0.00060784 0.0012521 0)
(0.000613829 0.00116865 -2.23555e-21)
(0.000490708 0.00108109 4.50642e-22)
(0.000796842 0.00140539 6.13294e-22)
(0.000263657 -1.5244e-05 -4.48624e-22)
(0.000546109 0.000823969 -7.37831e-22)
(0.000107841 0.000523934 -5.73904e-22)
(0.000867364 0.00123739 -1.67421e-21)
(0.000560147 0.000981012 -1.73369e-22)
(0.000668605 0.00107325 1.26145e-21)
(0.000656268 0.00114999 -1.00424e-22)
(0.000669133 0.000169923 3.81308e-24)
(0.000810179 0.00140297 5.15282e-22)
(0.000605247 0.00108066 1.87265e-22)
(0.000658249 0.00114753 4.9628e-23)
(6.51551e-05 0.000509201 0)
(0.00060355 0.00108806 0)
(0.000540049 0.00102088 -1.17816e-21)
(0.000622732 0.00111996 3.92804e-23)
(0.000557326 0.0010217 -1.01133e-21)
(0.000582662 0.00100302 -2.49629e-24)
(0.000562815 0.00103164 0)
(0.000613832 0.000795612 -5.306e-22)
(0.000793283 -5.28274e-05 -1.61086e-21)
(0.000580669 0.000407451 0)
(0.000576861 0.00103083 5.9105e-23)
(0.000568464 0.000989348 -3.56802e-23)
(0.00068461 0.000552901 1.48829e-21)
(0.000569723 0.0010308 6.42665e-25)
(0.000760653 0.00137235 -7.38398e-24)
(0.000494412 0.00103464 -3.79632e-22)
(0.000666223 0.00121803 -8.84611e-23)
(0.000631878 0.00120484 -6.04783e-23)
(0.000690194 0.00119802 0)
(0.000420554 0.00132487 1.15496e-21)
(0.000635264 0.00111505 8.6503e-22)
(0.000552884 0.00115632 -6.15783e-22)
(0.000350318 -4.73827e-05 8.23544e-26)
(0.000608592 0.00115727 -4.73089e-22)
(0.00043247 0.000892734 1.12016e-21)
(0.000372337 0.000154827 6.39077e-22)
(0.000657114 0.00115261 0)
(0.000595392 0.00103986 8.39377e-22)
(0.000342401 0.000752733 -1.82108e-22)
(0.001155 -1.80449e-05 5.16616e-22)
(0.000303558 0.000784858 5.92442e-22)
(0.000724236 0.00124127 1.08555e-22)
(0.000657148 0.00115377 -5.03727e-22)
(0.000567951 0.00101245 -6.48322e-22)
(0.000584576 0.000936473 1.73935e-21)
(0.000809799 0.00141279 3.90698e-22)
(0.000594938 0.000223133 -1.24531e-21)
(0.000572772 0.000180191 1.43244e-21)
(0.000626228 0.000117018 -1.48199e-21)
(0.000778472 0.00135871 2.54988e-23)
(0.000415554 0.000917512 -2.21563e-21)
(0.000651359 5.36691e-05 7.77488e-22)
(0.000621709 0.00121132 0)
(0.000808814 0.00141342 -3.97754e-22)
(0.000605139 0.00103851 7.72145e-22)
(0.000325173 0.000815708 -1.99019e-22)
(0.000258755 0.000389738 -1.01826e-22)
(0.000557584 0.0010362 6.20552e-24)
(0.000608243 0.0011176 1.89039e-22)
(0.000608006 0.00106152 -4.27506e-22)
(0.000568863 0.00105587 0)
(0.00052316 0.000896167 -7.38144e-22)
(0.000682072 -4.8537e-06 8.11474e-22)
(0.000586359 0.0010986 -4.83918e-22)
(0.000695584 0.00122109 4.64314e-22)
(0.000924509 0.00137153 -4.04474e-23)
(0.000588393 0.000241516 0)
(0.000427065 0.000141761 -5.80519e-22)
(0.000649526 0.0011128 -5.78617e-24)
(0.000658031 0.00115468 -5.30397e-22)
(0.000580716 0.00107201 2.77932e-23)
(2.02609e-05 1.62604e-05 1.2164e-22)
(0.000652292 0.00114641 1.0716e-22)
(0.000455395 0.000782282 -9.10835e-22)
(0.000821416 4.97846e-05 7.62454e-22)
(0.000662533 0.000135309 7.58115e-22)
(0.000752756 0.00139757 -1.60338e-23)
(0.000612014 0.00123572 0)
(0.000375676 0.000639049 -7.66668e-22)
(0.000299803 0.000550225 0)
(7.17148e-05 -3.96362e-06 6.42694e-22)
(0.000654013 0.00114808 -3.3188e-22)
(0.000758198 7.32717e-05 -9.02958e-22)
(0.00065005 0.0011431 -4.265e-22)
(0.000528971 0.00108788 4.72341e-22)
(0.0005042 0.000974039 5.22033e-22)
(0.000733235 0.00123934 -4.23779e-22)
(5.59458e-05 0.000139828 2.06766e-21)
(0.000790339 0.00140812 1.65614e-22)
(0.000914686 7.63441e-05 0)
(0.000551946 0.00104005 8.08293e-23)
(0.000458583 0.000694876 -4.20851e-24)
(0.00059287 0.00103121 0)
(0.000580515 0.000451941 -2.18899e-21)
(0.000879393 4.02744e-06 0)
(0.000658094 0.00114764 9.52311e-23)
(0.000576366 0.00104422 6.02049e-22)
(0.000677227 0.00120967 -1.43898e-21)
(0.000633578 0.00112529 -1.27245e-22)
(0.000826526 0.000154551 -8.81755e-23)
(0.000591682 0.00103648 0)
(4.28378e-05 0.00034736 -1.30949e-22)
(0.000801376 0.0014102 0)
(0.000177149 0.000356933 0)
(4.33257e-05 0.000757566 -3.14012e-22)
(0.000538228 0.0011016 -8.43768e-22)
(0.000642325 0.000184494 -6.80464e-22)
(0.000647124 0.00111395 8.56434e-22)
(0.000460175 0.000960171 1.35244e-22)
(0.000748339 0.00120569 -9.71176e-22)
(0.000518962 0.00129773 0)
(0.000614778 0.00108136 3.54352e-22)
(0.000791224 0.00139936 0)
(0.000805809 0.00142192 -6.94142e-24)
(0.000571702 0.00108704 1.04555e-21)
(0.000602033 0.00103156 8.68278e-23)
(0.000561793 0.000667705 1.82145e-21)
(0.000471225 0.000415852 1.15334e-21)
(0.000512708 0.00103078 0)
(0.000616063 0.00108136 -1.10477e-22)
(0.000797572 0.00140057 0)
(0.000589612 0.00102456 0)
(0.000581595 0.00111305 -1.12056e-21)
(0.000984518 0.000160148 6.26459e-22)
(0.000538307 0.00122394 0)
(0.000202885 6.34957e-06 8.51944e-22)
(0.000535874 0.000999192 -6.87249e-23)
(2.48899e-05 0.000122611 9.92536e-22)
(0.000680448 0.00048326 -8.94799e-23)
(0.000706585 0.00120241 4.68604e-22)
(0.000829606 0.00113941 9.06492e-22)
(0.000695814 0.00110323 -4.60151e-22)
(0.000512604 0.00127589 0)
(0.00055919 0.0010672 5.29271e-22)
(2.70489e-05 0.000392413 3.36502e-23)
(0.000588485 0.00104508 -3.90861e-22)
(0.000545286 0.00106672 -2.463e-22)
(0.000807903 0.00141711 -3.49118e-22)
(0.000794698 0.00140626 -8.87793e-25)
(0.000574828 0.00104097 0)
(0.000649277 0.00124835 4.67665e-22)
(0.00064155 0.00106892 -7.61148e-22)
(0.000616955 0.00107911 1.98314e-22)
(0.000889917 0.000195431 4.54646e-22)
(0.000608567 0.00108041 7.26929e-22)
(0.000618291 0.00107535 0)
(0.000558526 0.00112912 0)
(0.000555754 0.0010893 4.84773e-22)
(0.000519306 0.000904276 -9.73825e-23)
(0.000577749 0.00101045 1.05769e-21)
(0.000653664 0.00115141 0)
(0.00052347 0.000896668 4.10974e-22)
(0.00103324 0.000377829 8.24799e-24)
(0.000649313 0.0011687 2.45587e-22)
(0.000600953 0.00104646 -7.35368e-22)
(0.000609193 0.000674686 5.28511e-22)
(0.000643666 0.00114115 -7.4998e-22)
(0.00072039 0.00125674 4.38678e-25)
(0.000759797 4.75742e-05 -1.34521e-21)
(0.000585371 0.00118946 1.78008e-22)
(0.00024861 0.000942333 0)
(0.000622133 0.00109052 -1.00368e-21)
(0.000439255 0.000970212 5.87265e-25)
(0.000412703 0.00131451 0)
(0.000340629 0.000901476 6.71628e-22)
(0.000637906 0.00113757 -9.50056e-22)
(3.50928e-05 -2.17103e-06 1.37976e-21)
(0.000235674 0.00134288 -7.89187e-22)
(0.000652109 0.00115834 -4.96812e-22)
(0.000657578 0.000433623 4.14922e-22)
(0.000585453 0.00104206 3.56217e-22)
(0.000582052 -0.000432712 -9.33829e-23)
(0.000857624 8.28623e-05 0)
(5.91059e-05 -1.54067e-06 0)
(0.000578698 0.0010437 -1.25809e-21)
(4.07129e-06 2.20534e-05 6.60311e-23)
(0.000644742 0.00114042 8.25277e-22)
(0.000580639 0.00103071 9.55479e-23)
(0.000583867 0.0010602 8.59063e-23)
(0.000640089 0.00112892 1.50305e-22)
(0.000547627 0.00120095 5.43468e-22)
(4.29972e-05 2.34787e-06 -1.48924e-22)
(0.000665081 0.00126119 -8.19781e-22)
(0.000621117 0.00107859 -1.46732e-22)
(0.000292196 5.41922e-05 0)
(0.000592573 0.00105904 4.11111e-22)
(5.06123e-05 -8.00546e-06 0)
(0.000650874 0.00110872 -8.54267e-22)
(5.99552e-06 -5.91111e-05 0)
(4.55576e-05 -6.28541e-06 0)
(0.000706702 0.0012498 2.7704e-22)
(0.000575035 0.00108741 4.30183e-22)
(0.000383729 0.000599273 -1.71787e-22)
(0.000582903 0.00103849 -6.68735e-22)
(0.000617316 0.00107674 -6.02352e-22)
(0.000654836 0.0011399 -4.14426e-22)
(3.84984e-05 0.000217586 -2.58029e-22)
(0.000904044 8.86364e-05 0)
(0.000806848 0.00141542 0)
(0.000639533 0.00132575 -4.71567e-22)
(0.000616856 0.00108017 5.40907e-22)
(0.000651342 0.00114669 0)
(0.000599704 0.00104091 -1.4384e-21)
(0.000600749 0.00102853 -1.57179e-21)
(0.000632148 0.00121935 0)
(0.000593568 0.0010338 0)
(0.000593075 0.00106518 -1.87256e-22)
(0.000405453 0.000301619 4.36953e-22)
(0.000532655 0.000819006 -4.74589e-25)
(0.000615385 0.00108184 -1.24234e-22)
(0.000683377 0.00126133 1.96421e-22)
(0.000615829 0.0010818 5.85956e-22)
(0.000602084 0.0010844 -6.09305e-22)
(0.000800259 0.00140746 -1.12525e-21)
(0.000592029 0.00104319 3.8657e-23)
(0.000630581 0.000362739 -2.28663e-21)
(0.000634912 0.00119026 -6.46703e-24)
(0.000620625 0.00108022 -1.69431e-22)
(0.000670109 0.00122399 -3.12957e-24)
(4.89608e-05 7.83933e-06 -3.00727e-23)
(1.78581e-05 9.64819e-05 -9.77739e-22)
(0.000586347 0.00104083 6.61654e-22)
(0.000621695 0.00110336 -6.19438e-22)
(0.000838087 0.000797857 0)
(0.000594782 0.00104022 7.16488e-22)
(0.000632809 0.00123704 -2.95607e-23)
(0.00068038 0.0012575 -5.33399e-23)
(0.000521762 0.00114383 -1.25979e-21)
(1.56996e-05 8.02265e-05 -3.85141e-22)
(0.000685476 0.00127464 0)
(0.000656129 0.00115972 0)
(0.000612224 0.00108135 4.8141e-22)
(-3.37574e-06 3.86363e-05 1.13528e-24)
(0.000527636 0.00110953 0)
(0.000804936 0.00140651 4.67673e-22)
(0.000600454 0.00103901 7.71941e-22)
(5.88671e-05 0.000237712 0)
(0.000669457 0.00121051 0)
(4.78863e-05 1.17614e-05 2.92921e-23)
(0.000605785 0.00105515 1.36967e-21)
(0.00037748 0.00104918 6.93761e-22)
(0.000818523 0.00140621 3.01883e-22)
(0.00062641 0.00113832 -2.39576e-22)
(0.00058543 0.00103645 -1.61889e-22)
(0.000621694 0.00107877 0)
(0.00058283 0.00110057 -5.13896e-22)
(0.000660778 0.00114778 0)
(5.30489e-05 -2.20747e-05 -5.54357e-22)
(0.000794922 0.00140466 -1.44211e-21)
(0.000814574 0.00141339 7.84957e-22)
(1.7465e-05 0.00012031 1.5858e-21)
(5.72891e-05 -1.09061e-05 0)
(0.000804682 0.00139829 3.85204e-22)
(0.000662063 0.00124435 -2.661e-25)
(0.00059003 0.00108595 6.22501e-23)
(0.00060264 0.00105461 -2.65511e-22)
(0.000612268 0.00114012 6.93821e-23)
(0.000598725 0.00106043 -1.03732e-21)
(0.000620746 0.00111602 -5.10587e-22)
(0.000507627 0.00121121 6.55703e-24)
(0.000656452 0.00115024 4.54679e-22)
(0.000592198 0.00103594 -9.91583e-23)
(6.16457e-05 0.000281033 0)
(2.84704e-05 2.00313e-05 2.29944e-22)
(0.000725169 0.00125702 -4.26982e-22)
(0.000913685 9.2503e-05 2.42379e-22)