/*--------------------------------*- C++ -*----------------------------------*\
  =========                 |
  \\      /  F ield         | OpenFOAM: The Open Source CFD Toolbox
   \\    /   O peration     | Website:  https://openfoam.org
    \\  /    A nd           | Version:  7
     \\/     M anipulation  |
\*---------------------------------------------------------------------------*/
FoamFile
{
    version     2.0;
    format      ascii;
    class       volVectorField;
    location    "113.5";
    object      U;
}
// * * * * * * * * * * * * * * * * * * * * * * * * * * * * * * * * * * * * * //

dimensions      [0 1 -1 0 0 0 0];

internalField   nonuniform List<vector> 
591
(
(0.000840003 3.09794e-06 1.21577e-18)
(0.000837704 3.4734e-06 -6.60645e-19)
(0.00085095 2.88638e-05 5.6919e-20)
(0.000869394 -3.13338e-05 -1.49002e-19)
(0.000858786 -1.48919e-05 2.25421e-19)
(0.000803694 -3.74264e-05 -1.39559e-19)
(0.000555847 -0.000199666 8.06403e-19)
(0.000803462 4.09051e-06 2.10774e-18)
(0.00572018 0.00251205 9.87967e-19)
(0.000823302 7.63938e-06 2.43536e-18)
(4.49524e-05 0.00015585 1.21777e-18)
(0.000939765 0.00140014 9.40637e-21)
(0.000801537 4.45103e-06 1.32309e-18)
(0.00160582 0.00240612 -7.87355e-19)
(0.000803221 1.42874e-06 -4.46764e-19)
(3.39912e-05 -0.000124145 2.50589e-22)
(0.000141956 0.000663586 7.0474e-19)
(0.00081818 8.25244e-05 -4.97453e-19)
(0.00189234 0.000392809 4.73725e-19)
(0.00135755 0.000260524 -2.47099e-19)
(0.000829797 -8.95499e-06 3.73048e-19)
(0.00340085 0.0065604 -8.14202e-20)
(2.14661e-05 6.04305e-05 2.70835e-19)
(0.000835286 -2.692e-05 -4.51538e-19)
(4.25881e-06 -9.04677e-06 3.58754e-19)
(0.000799104 4.92788e-05 0)
(9.54046e-05 0.000463034 1.59919e-19)
(0.000589219 -6.04843e-06 -1.78752e-19)
(0.000772868 4.97201e-05 1.14895e-18)
(0.000804482 7.54568e-05 5.84553e-19)
(4.48731e-05 -6.42339e-06 -5.57064e-24)
(1.62326e-05 -3.51792e-05 3.52016e-19)
(2.41155e-05 -2.34338e-06 -4.64013e-20)
(3.37112e-05 -1.22538e-05 0)
(4.17883e-05 -1.27632e-05 1.13094e-18)
(0.00116767 0.000143194 1.79797e-19)
(2.00304e-05 -3.66847e-06 4.46945e-20)
(0.000823222 9.51017e-07 3.06719e-23)
(2.12519e-05 3.56812e-05 2.65914e-19)
(-1.80602e-05 -4.27993e-05 -8.5372e-19)
(0.000664049 -0.000176161 9.58701e-19)
(1.50899e-05 -4.12333e-06 4.54621e-20)
(0.000819559 2.71853e-05 -1.57376e-18)
(0.000831322 5.19983e-05 -6.90516e-19)
(9.38473e-06 -4.44041e-06 0)
(4.44035e-05 2.35694e-06 8.51497e-20)
(0.00135116 0.00450208 8.92727e-19)
(6.36563e-05 7.40263e-06 8.63252e-20)
(0.000803157 1.76468e-05 0)
(0.000398825 -0.000235365 6.76784e-19)
(0.000394054 0.000262324 5.1173e-21)
(0.000410237 2.31156e-05 -1.00334e-18)
(0.00634762 0.0109401 -7.6866e-19)
(0.00622454 0.0107952 1.52875e-20)
(0.00561479 0.0103781 1.45589e-18)
(0.000804305 5.48504e-05 0)
(5.77438e-05 2.21633e-05 0)
(0.000323179 -1.9941e-05 3.50853e-23)
(5.18747e-05 4.54741e-06 -3.46308e-19)
(0.000811699 -6.38537e-06 0)
(0.00067705 2.77906e-05 3.17411e-19)
(0.000850779 3.56488e-05 2.20827e-18)
(0.000814929 4.21865e-05 -5.42181e-19)
(0.000799988 1.0932e-05 -3.15625e-19)
(0.00171361 0.000486769 5.42312e-19)
(0.000815898 3.78022e-05 -1.14385e-18)
(0.000842716 4.28548e-05 -5.22844e-19)
(6.45346e-05 -9.83102e-06 -1.73335e-19)
(0.000691875 0.00225471 0)
(0.000847316 5.26205e-05 0)
(0.000798803 3.43746e-05 -1.39171e-18)
(3.10422e-05 1.17367e-05 0)
(0.000295313 0.00025857 3.26733e-19)
(2.78928e-05 -1.43545e-05 0)
(3.03336e-05 -5.32153e-06 1.59403e-19)
(1.97088e-06 -2.91398e-05 -3.36508e-20)
(0.000809166 7.97287e-05 2.46824e-19)
(3.58861e-05 6.93532e-06 0)
(0.000817322 5.65953e-05 4.47059e-19)
(0.000785634 0.000297976 2.10639e-19)
(0.000958632 7.15381e-05 -3.97488e-20)
(3.56254e-05 1.72949e-05 -4.51665e-20)
(2.34907e-06 -6.70349e-06 0)
(0.000447992 0.000207444 1.70119e-19)
(2.54169e-06 1.34663e-05 0)
(0.000809965 5.31662e-05 -6.08367e-19)
(0.000665699 -0.000110028 0)
(5.17112e-05 -6.45921e-06 -1.74403e-19)
(3.64369e-08 -1.0337e-05 0)
(0.000840336 0.000245423 -3.41106e-19)
(1.21621e-06 -3.34022e-06 0)
(0.000437915 0.000316684 -1.37085e-23)
(0.000554014 0.000104809 0)
(0.0008194 4.59578e-05 -3.22841e-24)
(1.90729e-06 7.66486e-06 -4.21528e-20)
(0.000485172 -3.71243e-05 1.76268e-18)
(0.00101486 7.6005e-05 4.15664e-20)
(0.000765407 4.86775e-05 6.41788e-22)
(0.000751828 0.000661228 2.69396e-19)
(6.81438e-06 3.41626e-05 0)
(-8.28316e-06 -2.49799e-06 -3.12167e-19)
(-3.61901e-05 1.60604e-05 -1.10089e-18)
(5.38356e-06 5.82492e-05 -5.96115e-19)
(0.000585812 -3.25121e-05 0)
(9.49733e-06 8.08575e-05 0)
(0.000823774 3.85323e-05 2.18048e-18)
(0.000807041 4.41324e-05 1.53364e-18)
(0.000465345 -0.000128335 0)
(3.79736e-05 0.000201217 -8.94983e-19)
(2.02609e-06 0.000142837 4.96812e-19)
(5.4171e-05 0.00038167 6.25058e-19)
(0.000314812 5.56139e-05 -9.3686e-19)
(0.000801786 2.00001e-05 1.37358e-19)
(0.000253828 -8.8584e-05 5.3098e-19)
(4.06831e-06 2.0859e-05 0)
(1.8138e-05 0.000260259 -1.09391e-18)
(0.00032936 0.000314812 -1.61649e-19)
(-2.32016e-06 -1.97902e-06 1.46525e-19)
(0.000671845 0.000800016 0)
(0.000378547 0.000376439 5.74213e-20)
(0.000830327 3.56679e-05 1.07015e-18)
(0.000799727 1.85468e-06 -2.72556e-18)
(3.78214e-06 2.96651e-05 0)
(0.000657194 -4.44601e-05 -1.1226e-19)
(0.000325896 -0.00016774 1.24256e-18)
(0.00261312 0.000811041 -3.36527e-19)
(9.18821e-06 0.000109522 -6.13078e-19)
(9.97952e-06 0.000137801 1.61951e-18)
(0.000635401 2.67771e-05 -3.89624e-20)
(4.84926e-05 -1.77313e-05 -7.4983e-19)
(0.00081487 4.3189e-05 -3.91545e-19)
(0.000687571 2.85333e-05 -4.10485e-20)
(3.02858e-05 0.000308211 -5.97036e-19)
(0.000515396 4.38761e-05 -4.93726e-19)
(3.71036e-05 -4.90273e-06 1.56082e-19)
(0.000845196 4.66306e-05 -1.08204e-18)
(0.00152457 0.000237055 -1.13636e-18)
(5.51729e-06 4.66062e-05 4.96216e-19)
(0.000814864 3.9129e-05 -5.03285e-19)
(0.000928861 0.000559862 -7.84787e-20)
(0.000151072 0.000774718 0)
(0.000614158 6.02078e-05 0)
(0.000280081 3.06837e-05 -1.60878e-18)
(5.62422e-05 4.8257e-05 -1.37351e-18)
(2.48296e-05 1.57383e-05 0)
(0.00424801 0.00740154 -1.01967e-20)
(0.00422608 0.00737304 3.16712e-20)
(0.00442825 0.00757575 -4.9952e-21)
(0.00420517 0.00773326 0)
(0.0041976 0.00759917 5.77269e-19)
(0.00424495 0.00740255 -9.2048e-20)
(0.00420904 0.00804057 4.84522e-19)
(0.00429067 0.00742407 0)
(0.00420759 0.00853316 6.16829e-19)
(0.00432719 0.00745273 2.23961e-19)
(0.000841892 2.9936e-05 -1.37134e-18)
(0.000792126 6.66718e-05 0)
(0.000208603 2.86109e-05 1.27654e-19)
(4.12967e-05 1.03406e-05 8.71465e-20)
(6.92042e-05 3.36637e-05 6.79731e-19)
(9.48202e-05 2.70278e-05 -3.41524e-19)
(8.48816e-05 -6.37038e-06 0)
(3.79527e-05 1.66515e-06 8.18006e-20)
(0.000208907 0.000112771 0)
(0.000156338 1.88381e-05 -5.24123e-20)
(0.000351276 0.000209194 -5.09075e-21)
(4.83963e-05 3.40555e-05 -4.37466e-19)
(7.94344e-05 1.52092e-05 -8.52106e-20)
(8.23658e-05 4.89422e-05 1.3114e-21)
(0.0002651 0.00035528 -6.65953e-19)
(0.000111777 0.000988528 0)
(3.64524e-05 4.36544e-05 3.42916e-19)
(0.000200062 0.00173633 0)
(0.000209822 0.000240144 7.04414e-19)
(2.63388e-05 -2.60995e-06 1.11445e-19)
(0.000501148 0.000156044 -1.72236e-19)
(0.000785527 3.4686e-05 -1.9229e-18)
(3.24728e-05 -2.02459e-06 5.04545e-24)
(0.000134983 5.68917e-06 2.245e-19)
(0.00024801 7.0885e-05 -8.9897e-20)
(0.000885554 0.000693954 3.34826e-19)
(0.000724029 0.00163464 -9.2334e-21)
(0.000392456 0.00141687 -9.37946e-21)
(0.00103507 0.000551606 0)
(8.22688e-05 -2.43153e-05 1.11824e-18)
(0.000101245 -1.34585e-06 -4.42741e-20)
(0.000479602 -0.000253282 -1.13611e-18)
(0.000828957 4.42188e-05 0)
(0.000170319 -2.80767e-05 3.63169e-19)
(0.000308798 0.00129572 0)
(0.00109055 0.000772215 -7.29939e-20)
(0.000826122 2.4583e-05 -1.86467e-19)
(5.84262e-05 -2.55599e-05 -2.99844e-19)
(0.000846845 0.000313748 -2.07958e-20)
(3.78015e-05 -2.08884e-05 -5.99212e-19)
(0.000229199 0.000158332 8.63571e-20)
(0.000233292 0.000299625 -3.4489e-19)
(0.000904462 0.000256266 0)
(0.00083239 6.0336e-05 0)
(0.000269392 0.000113013 1.76782e-19)
(0.000230314 -3.10109e-05 1.06836e-23)
(0.000185812 0.000191544 0)
(0.000309322 0.000640969 -5.55482e-21)
(0.000371418 -4.74963e-05 0)
(0.0003839 0.000598331 0)
(0.000101093 6.72964e-05 -1.34614e-21)
(0.00081 2.95426e-05 -9.54146e-19)
(0.000804953 1.62374e-05 7.86798e-19)
(0.000119849 4.03013e-05 -1.49794e-19)
(0.000981604 0.000146603 8.49965e-20)
(0.000842123 3.47581e-05 3.3342e-19)
(0.000824406 3.89236e-05 -2.93975e-19)
(0.00103868 0.000422896 0)
(0.000456095 0.000101025 6.24165e-19)
(0.000923094 0.000325935 2.09048e-20)
(0.000601605 0.000148023 0)
(0.000278463 0.000439792 4.0951e-19)
(0.000264476 0.000202173 -8.43878e-20)
(0.00111098 0.000387487 -7.81752e-19)
(0.000650598 0.000102614 -1.7921e-19)
(0.000828779 7.977e-05 -7.45708e-21)
(0.000847483 1.93193e-05 9.38641e-20)
(3.73506e-05 -8.32727e-05 -1.98054e-18)
(0.000749222 0.000379236 2.19153e-19)
(0.000696846 7.1843e-05 2.30548e-20)
(0.000722364 0.000278464 1.63236e-23)
(0.000745295 0.00046286 -4.09514e-19)
(0.000857857 9.93152e-06 9.06661e-20)
(6.55743e-05 6.65471e-05 0)
(0.000666703 0.000426536 -4.65746e-20)
(0.000180269 7.50764e-05 0)
(0.000374624 0.000500419 -2.64754e-19)
(0.000315046 0.000149928 0)
(0.000693076 0.000205009 3.55071e-19)
(0.000666365 0.000259346 -4.37068e-20)
(7.76876e-05 9.20696e-05 6.18897e-19)
(0.000892867 9.78922e-05 -1.63666e-18)
(4.82638e-05 1.51017e-05 2.57079e-19)
(0.000905646 7.34114e-05 -1.68574e-18)
(0.000855267 9.18752e-05 1.63013e-19)
(0.000817615 3.95694e-05 1.92862e-18)
(0.000822829 3.13388e-05 -1.32677e-19)
(0.000753683 7.02797e-05 0)
(0.000804867 1.85787e-05 9.00602e-19)
(0.000979189 0.000242423 -4.26901e-19)
(0.000798067 0.000103718 -4.83522e-19)
(0.000787022 0.000239613 -8.80826e-20)
(0.000185621 -0.000207233 -2.07394e-18)
(0.000774209 8.5071e-05 8.87137e-19)
(0.000647268 0.000589541 0)
(3.9836e-05 -0.000123125 0)
(0.00123364 0.00048007 4.97138e-19)
(0.000515092 -4.98832e-05 -3.27087e-18)
(0.00135954 0.000421877 5.76203e-19)
(0.00125785 0.000722884 -6.38832e-20)
(0.000818338 3.59807e-05 -2.12652e-19)
(0.000847032 6.57373e-05 -1.42727e-18)
(0.000813098 2.6677e-05 1.58432e-18)
(0.00081312 1.82267e-05 9.76757e-20)
(0.000680139 0.000352751 -4.40227e-20)
(9.70955e-05 0.000107132 1.10747e-23)
(0.000774122 -2.26731e-05 2.64807e-19)
(0.000201937 -0.00024886 -7.33742e-19)
(0.000650926 0.000180426 0)
(0.000736357 5.20802e-05 9.89913e-20)
(0.000733989 1.09218e-05 -3.8063e-19)
(0.000402332 0.000157177 3.93208e-20)
(0.000816693 0.000510571 -1.65413e-19)
(0.000141968 5.6896e-05 4.71747e-25)
(0.000826447 0.00041174 0)
(0.000996235 0.000316047 4.15582e-20)
(0.000775367 -5.06826e-05 -6.15695e-19)
(0.000360983 8.43389e-05 4.97645e-19)
(0.000908235 0.0004271 0)
(4.14586e-05 2.41964e-05 1.33652e-19)
(0.000502108 0.000257414 2.13866e-19)
(0.000566156 -0.000177025 -7.09057e-19)
(7.28073e-05 -0.000177491 -1.05599e-18)
(0.000827413 4.46139e-05 -4.86456e-19)
(0.000752401 -4.83427e-05 -1.94682e-19)
(0.000556702 0.00072719 -1.17383e-18)
(0.00085859 4.35046e-05 -6.73054e-20)
(0.000533798 -3.69364e-06 1.28303e-18)
(0.00072697 9.92393e-05 2.27672e-20)
(0.000552362 0.000200258 -1.6562e-19)
(1.91544e-05 -1.66437e-05 -8.75465e-20)
(0.000137421 -7.13756e-05 2.40487e-18)
(9.26547e-06 4.34189e-07 -1.94779e-19)
(0.000851323 0.000121239 3.6358e-19)
(0.000692167 0.00013423 0)
(0.00015837 -0.000126855 -1.04778e-18)
(0.00010362 -3.36667e-05 3.12627e-19)
(8.08946e-05 -4.45587e-05 9.72767e-24)
(0.000819016 0.000107046 -3.1912e-19)
(0.000137919 -3.14261e-05 0)
(0.000605543 0.000235349 0)
(0.000111349 0.000316716 -3.62725e-19)
(0.000874377 0.000102292 2.10709e-18)
(7.5171e-06 5.11771e-07 0)
(0.000894677 4.97077e-05 0)
(2.95844e-05 -2.36128e-05 0)
(0.000815129 4.91205e-05 -4.46603e-21)
(0.00077698 -1.75638e-05 0)
(0.00426111 0.00740832 8.07213e-20)
(0.00436306 0.00748876 1.43649e-19)
(0.000841688 -2.57166e-05 0)
(0.000804812 -2.32828e-05 8.11091e-19)
(0.000150544 0.000108342 1.49152e-19)
(0.000868544 6.57664e-05 8.08334e-19)
(0.000124359 8.61206e-05 2.34299e-20)
(0.000800925 -1.21619e-05 6.23419e-19)
(2.77154e-05 6.72278e-06 0)
(1.83369e-05 -9.83873e-06 -4.48278e-20)
(0.000913082 4.5313e-05 -4.86324e-19)
(1.91769e-05 -2.52279e-05 -6.69502e-19)
(0.00077876 0.000130116 -4.23041e-20)
(0.000169811 0.000145956 -1.88028e-19)
(0.000812509 3.30751e-05 0)
(0.00468252 0.0081535 9.00684e-22)
(0.000200705 0.000791608 3.33339e-19)
(8.39891e-05 -7.29815e-05 -9.14116e-19)
(4.22472e-05 -3.39165e-05 -1.16829e-18)
(0.000564474 1.27962e-05 1.89384e-20)
(0.000589075 0.000401133 0)
(0.000429465 0.000446258 -2.56239e-19)
(5.33548e-05 -6.59522e-05 1.18325e-18)
(0.000530214 -2.83727e-06 7.66958e-20)
(3.30488e-05 3.75124e-07 4.06909e-19)
(0.00073721 -3.51191e-05 1.17102e-18)
(0.000812559 3.18679e-05 -6.06121e-19)
(3.81707e-05 -5.21702e-05 1.70882e-18)
(0.000840433 -5.16003e-05 -6.65571e-24)
(0.00054179 5.53963e-06 -3.74223e-20)
(0.00088383 7.18991e-05 0)
(0.000848288 5.9042e-05 0)
(0.00591427 0.00724389 2.6004e-19)
(9.18852e-06 -3.2449e-06 -1.19551e-19)
(7.44495e-05 -0.000122803 7.72747e-19)
(0.000747983 0.000113763 -6.96106e-19)
(1.15653e-05 3.71311e-07 2.01477e-19)
(0.000671396 -3.43337e-05 -7.23443e-19)
(0.00076436 3.66578e-05 1.55729e-18)
(0.000724083 0.00015517 -3.55279e-19)
(0.000807116 -1.0868e-05 3.60619e-19)
(5.40336e-05 -3.82893e-05 1.11548e-18)
(0.000802226 6.70416e-06 -3.22456e-19)
(0.000880605 3.12705e-05 0)
(0.000558047 0.000299427 4.20844e-20)
(0.000872895 4.65022e-05 -9.47463e-19)
(1.00429e-05 3.02935e-06 9.11279e-19)
(0.000866105 3.66044e-05 9.65854e-19)
(0.000866402 3.49915e-05 -9.63743e-19)
(0.000774056 5.7585e-06 -5.68888e-19)
(0.000568549 -8.91471e-05 -5.25382e-19)
(0.0043301 0.00745491 2.47584e-19)
(0.00422173 0.00752803 -2.78902e-19)
(0.00422004 0.00758568 2.66796e-19)
(0.00425673 0.00741204 1.98025e-19)
(0.000845166 -4.12726e-05 1.44203e-19)
(0.00447701 0.00751548 0)
(0.00440444 0.0075194 -3.86963e-19)
(1.67975e-05 -1.78107e-07 -9.978e-19)
(0.0041697 0.00746819 -6.3379e-20)
(0.00414522 0.00743146 -2.21562e-19)
(0.00602929 0.0106047 0)
(0.00654023 0.0111866 3.71605e-20)
(0.00600922 0.0105744 0)
(0.00655592 0.0112102 1.30991e-19)
(0.00599671 0.0105985 2.69677e-19)
(0.00659262 0.0112271 1.2476e-20)
(0.00593565 0.0106111 -7.76793e-19)
(0.0066229 0.0111461 8.16913e-21)
(0.00390347 0.00919687 -1.90791e-19)
(0.00418589 0.0074874 3.8753e-21)
(0.0042367 0.00755089 7.93759e-20)
(0.00414971 0.00743376 4.12131e-20)
(0.000902857 0.000198736 4.46527e-20)
(5.06192e-06 6.82762e-07 0)
(0.000738096 -8.90598e-05 0)
(0.000656938 5.93019e-05 0)
(0.00244823 0.00111971 4.23864e-21)
(0.000759366 -2.96336e-05 1.72496e-19)
(3.20208e-05 3.46765e-06 4.53856e-20)
(3.03091e-06 -1.77788e-05 1.65221e-18)
(0.000869266 -1.21519e-06 0)
(2.20986e-05 9.33759e-06 -1.91643e-19)
(0.000138966 0.000210714 0)
(7.62474e-06 -6.90684e-07 0)
(5.58508e-06 -6.57159e-07 0)
(0.000845575 0.000152618 1.13729e-20)
(0.000810942 -1.71997e-05 1.79547e-19)
(3.91526e-05 0.000248087 -6.48369e-24)
(0.000155819 0.000262165 -1.84127e-18)
(0.000618575 0.000324725 -8.56666e-20)
(0.000908496 0.000118054 6.01373e-19)
(0.000562522 -0.000118813 6.75341e-19)
(0.000358917 0.0011195 0)
(0.000485517 0.000575232 2.7144e-18)
(8.7085e-05 0.000132719 -1.80244e-18)
(1.06733e-05 -4.14533e-07 0)
(0.000823223 -6.48952e-05 3.64017e-20)
(1.23214e-05 2.83187e-05 1.64379e-18)
(0.00089037 3.6889e-05 2.70992e-19)
(-2.95482e-05 0.000105374 3.80733e-18)
(0.000922275 4.31347e-05 -2.68859e-19)
(0.00132816 0.000160247 7.47333e-19)
(2.46621e-05 -8.76492e-06 8.25341e-20)
(2.65422e-05 1.41537e-06 -8.58729e-19)
(5.05478e-05 0.000129007 0)
(0.000926031 9.30257e-05 5.98171e-19)
(0.0005036 0.000364969 2.37059e-19)
(0.000589231 1.69548e-05 -3.88864e-20)
(0.000795513 1.36242e-05 2.57071e-19)
(0.000723589 -0.00011506 0)
(0.00632036 0.0108953 -1.68163e-19)
(0.00637871 0.0109727 4.05927e-19)
(0.00616012 0.0107297 -6.18508e-19)
(0.00650124 0.0111318 -8.10058e-20)
(3.01211e-05 0.00010703 8.00196e-19)
(0.000934707 6.26072e-05 1.43982e-22)
(0.00641133 0.0110053 -3.86548e-19)
(0.00628142 0.0108451 5.48402e-19)
(0.00608016 0.0106715 -4.16806e-19)
(0.00652176 0.0111643 -6.81645e-20)
(7.78791e-05 0.000481383 -2.01766e-20)
(2.93179e-05 -0.00017962 -7.92728e-19)
(0.000621918 -1.80061e-05 -7.67205e-19)
(0.000737309 0.000219323 0)
(0.000800295 2.99188e-07 0)
(0.000191851 0.000381541 3.36188e-19)
(0.000606647 0.000511481 -5.41675e-19)
(3.14215e-06 -5.64939e-07 1.78316e-19)
(0.000201326 0.000464386 -7.38159e-19)
(0.00102783 0.000981222 -1.12661e-19)
(0.000762272 0.000167588 0)
(0.00080226 0.00018437 1.30965e-19)
(0.006347 0.00588403 1.13221e-18)
(0.000733834 0.00113019 8.26439e-20)
(3.30089e-05 3.15383e-05 -7.44371e-20)
(0.000809167 1.19645e-05 0)
(0.000867083 1.92e-05 -3.56767e-20)
(2.53809e-05 1.39154e-06 -1.96664e-19)
(2.23366e-05 2.66066e-06 1.92923e-19)
(0.000835211 1.01937e-05 5.3697e-19)
(0.000995224 0.000115652 6.57787e-19)
(0.000523036 5.19781e-05 0)
(0.00021971 -0.000241716 -4.00087e-19)
(0.000924683 0.000143901 3.89406e-19)
(-2.241e-06 -3.61097e-05 2.02925e-19)
(0.00145599 0.000447603 -2.57959e-18)
(0.000544839 -1.69603e-05 0)
(0.000807577 0.00014183 3.75305e-19)
(9.74825e-05 0.000380664 0)
(0.00118937 0.00816121 4.62038e-19)
(0.000501104 0.000495435 -1.22413e-18)
(0.000542555 0.00101857 -1.83698e-19)
(0.000893408 1.0245e-05 -1.45998e-19)
(9.25135e-06 1.98935e-05 0)
(0.000968916 7.95693e-05 6.11312e-19)
(0.00410582 0.0073947 8.1456e-20)
(0.00417053 0.00747272 4.73246e-20)
(0.00450074 0.00751819 4.5412e-19)
(0.00444598 0.00754401 -3.29048e-19)
(0.00647516 0.0111088 8.1083e-20)
(0.00391465 0.00714579 -9.44847e-22)
(0.00550709 0.00780081 -5.64794e-19)
(0.00409765 0.00737129 5.21936e-21)
(0.00518866 0.00786074 5.11729e-19)
(0.0040794 0.00733963 -4.87517e-20)
(0.00495409 0.0077203 0)
(0.00408458 0.00736388 -8.56979e-20)
(0.00474302 0.00759118 4.92561e-19)
(0.00409783 0.00737549 8.75472e-20)
(0.00457579 0.00753073 0)
(0.00428464 0.00742251 1.39779e-19)
(0.00423821 0.0075972 5.8035e-19)
(0.00446847 0.00752951 -5.54321e-19)
(0.00438869 0.00750683 3.7139e-19)
(0.00422686 0.00752397 3.22915e-19)
(0.0064305 0.0110421 -4.97658e-21)
(0.00411726 0.00740081 3.117e-20)
(0.00645864 0.0110719 0)
(1.79851e-05 3.64123e-06 -1.89781e-19)
(0.00200333 0.00654795 2.28143e-19)
(0.000838537 -6.36227e-05 1.0953e-19)
(0.000849782 -3.29269e-06 0)
(3.1249e-07 5.38768e-08 -3.98942e-19)
(-4.25158e-05 -5.07606e-05 6.91016e-19)
(2.21667e-05 4.86529e-05 2.08821e-18)
(0.000845799 0.000191216 -9.00274e-20)
(0.00080182 8.37699e-06 7.06094e-19)
(-4.71162e-07 6.51082e-07 3.09857e-19)
(9.9807e-06 -2.39465e-05 -1.84479e-18)
(0.000763357 2.64372e-05 1.63086e-19)
(0.000877977 0.000127327 -3.07849e-20)
(0.000801161 -6.47143e-06 1.48067e-19)
(0.000442298 0.000677904 0)
(-1.26205e-05 -0.000121458 1.15077e-18)
(0.00088083 -5.77762e-06 1.52469e-19)
(1.65797e-05 1.91982e-05 0)
(0.000121604 0.000550218 -6.3108e-19)
(0.000616501 0.0005813 1.31721e-18)
(0.000339579 0.000758068 0)
(0.00080215 -1.34043e-05 0)
(0.000801884 3.18719e-06 1.17679e-18)
(1.35156e-05 4.13407e-05 -3.51359e-18)
(1.22374e-05 4.68279e-06 3.73468e-19)
(0.00011645 0.000131207 0)
(2.76396e-05 -3.66076e-05 0)
(5.70876e-05 0.000101901 2.0092e-19)
(0.000946232 0.000190402 3.50276e-19)
(0.000802551 1.59701e-05 -1.37751e-18)
(1.92163e-05 2.71785e-05 0)
(0.000392888 9.17576e-07 -6.04655e-20)
(0.000798871 3.48346e-05 -1.5629e-19)
(0.000853991 5.47794e-05 1.06527e-18)
(0.00024985 0.000542981 6.32031e-19)
(0.000887803 0.00015915 0)
(1.00026e-05 -1.66999e-05 5.38396e-19)
(6.97568e-07 -5.13906e-07 -3.19829e-19)
(0.000928881 3.62931e-05 0)
(0.00105073 0.00227263 0)
(0.000890899 5.41603e-06 0)
(0.0010114 0.000209998 4.26982e-19)
(0.000819297 -3.72581e-05 -2.84152e-19)
(0.000948426 0.000117936 -6.84464e-19)
(0.0008013 3.8449e-06 0)
(3.8812e-05 5.93965e-05 -1.71498e-19)
(0.000174773 0.000319103 1.08078e-18)
(0.000801596 1.43451e-05 -2.5859e-23)
(0.00111477 0.000208201 -6.68309e-19)
(0.00108662 0.000130389 0)
(1.47279e-06 2.60227e-06 2.50923e-19)
(1.15682e-05 -1.04821e-05 -1.94233e-19)
(0.00054584 5.15518e-05 6.94757e-21)
(-1.57504e-05 -4.62135e-05 0)
(0.0010822 0.00025823 9.49499e-19)
(0.00502891 0.00974831 -2.82829e-19)
(0.00312175 0.00961645 1.27233e-18)
(8.39539e-07 -8.28017e-05 -1.91246e-19)
(2.51175e-05 -6.64623e-05 1.85858e-18)
(0.00119483 0.000261974 1.67275e-19)
(0.00133248 0.00107475 2.34014e-19)
(0.000810462 4.32358e-06 -7.37036e-19)
(0.00020359 0.000946625 -2.38178e-19)
(0.000819965 0.000946796 -2.18513e-19)
(0.00080045 -1.82634e-06 0)
(8.12479e-05 0.000603187 0)
(9.39206e-05 0.000272454 -3.37443e-23)
(0.000721551 -4.88126e-05 -1.66983e-23)
(0.000828587 6.92924e-05 1.52543e-19)
(0.00263433 0.00206913 -1.23113e-18)
(0.00176109 0.00923799 -1.1718e-19)
(0.000833268 7.73899e-05 4.9181e-19)
(0.0063155 0.00405439 -1.76263e-19)
(0.0067208 0.0115568 -1.3666e-20)
(0.00473391 0.00784353 4.9375e-21)
(0.000806743 1.39522e-05 -2.18829e-18)
(0.000845468 -1.8075e-06 8.63517e-24)
(3.40581e-06 -4.03139e-06 -3.4787e-19)
(4.40514e-05 7.88199e-05 -3.49142e-19)
(6.01039e-05 0.000254176 8.75067e-19)
(7.54934e-06 1.20771e-05 4.90207e-19)
(8.99433e-05 0.00021762 3.69637e-19)
(0.000818107 1.31707e-05 0)
(0.00534831 0.00949241 1.94867e-20)
(0.00155135 0.000642097 -2.61108e-20)
(0.000818799 4.1944e-05 3.60029e-19)
(4.26051e-06 -6.46913e-05 0)
(0.0018496 0.000749856 5.45848e-19)
(6.02278e-06 4.83658e-06 -2.70045e-19)
(2.86005e-05 2.28975e-05 9.71427e-20)
(0.00133722 0.00139927 6.36495e-19)
(0.000740729 4.97934e-05 1.83031e-19)
(3.18903e-07 -2.83845e-07 -1.7013e-19)
(0.00206701 0.00156415 -1.05552e-18)
(0.000127067 0.000166119 -8.18488e-19)
(0.00392004 0.00848928 -1.09075e-18)
(2.1131e-06 6.53475e-07 8.81073e-20)
(8.38447e-05 -1.4754e-05 -1.25807e-18)
(2.69763e-05 -5.04962e-05 4.05471e-20)
(0.00153577 0.000989868 0)
(0.00104554 0.00014453 -3.97273e-22)
(0.000458716 0.000843925 -4.0196e-20)
(0.000803782 2.74886e-05 -2.33982e-19)
(8.67766e-05 0.000172757 7.35809e-19)
(1.21636e-05 -4.73812e-05 4.03819e-19)
(1.47924e-05 1.1702e-05 -9.4672e-20)
(2.67891e-05 8.01527e-05 -3.20166e-19)
(0.000215287 -0.000129797 -5.4573e-19)
(0.00325258 0.00346969 2.88254e-21)
)
;

boundaryField
{
    back
    {
        type            empty;
    }
    ingreso
    {
        type            fixedValue;
        value           uniform (0.0008 0 0);
    }
    salida
    {
        type            zeroGradient;
    }
    front
    {
        type            empty;
    }
    defaultFaces
    {
        type            noSlip;
    }
}


// ************************************************************************* //
