/*--------------------------------*- C++ -*----------------------------------*\
  =========                 |
  \\      /  F ield         | OpenFOAM: The Open Source CFD Toolbox
   \\    /   O peration     | Website:  https://openfoam.org
    \\  /    A nd           | Version:  7
     \\/     M anipulation  |
\*---------------------------------------------------------------------------*/
FoamFile
{
    version     2.0;
    format      ascii;
    class       surfaceScalarField;
    location    "97";
    object      phi;
}
// * * * * * * * * * * * * * * * * * * * * * * * * * * * * * * * * * * * * * //

dimensions      [0 3 -1 0 0 0 0];

internalField   nonuniform List<scalar> 
1111
(
7.00131e-09
1.29527e-08
-1.60414e-08
-3.91259e-09
6.95011e-09
-1.17941e-08
1.18453e-08
-1.47449e-08
5.73903e-09
8.85604e-09
1.4984e-10
8.97914e-10
-1.03768e-09
-1.4375e-08
1.45148e-08
-1.43361e-08
1.41288e-08
1.10524e-09
-1.6229e-09
1.49143e-08
2.13719e-09
-2.83474e-09
9.46119e-09
-9.53479e-09
2.90834e-09
-6.72153e-09
-1.26129e-08
1.25984e-08
6.73606e-09
-5.02378e-08
-2.6081e-08
7.63189e-08
-8.11613e-09
7.71258e-09
7.35367e-09
3.30417e-09
3.69875e-10
-3.38473e-09
-2.89313e-10
1.58703e-08
-1.62502e-08
-2.32428e-08
2.36227e-08
-9.66544e-09
-7.89757e-09
8.80268e-09
8.76032e-09
-3.55755e-08
1.77185e-08
-3.23475e-08
5.02045e-08
9.49769e-09
-1.96294e-09
-1.42563e-08
-5.08964e-10
1.48252e-09
-2.91099e-09
1.93743e-09
-3.94553e-09
1.3326e-08
1.97052e-09
-1.1351e-08
8.81251e-09
-2.66521e-09
-1.50533e-08
8.906e-09
3.7236e-08
-2.99047e-08
-7.33136e-09
-1.94424e-08
3.37037e-10
1.7234e-08
1.87139e-09
-1.06296e-09
4.23526e-09
-1.78461e-08
1.46738e-08
-6.1225e-08
-3.96183e-09
6.51868e-08
1.3832e-10
-1.14006e-09
-3.29676e-10
1.33142e-09
-1.76122e-09
-1.36378e-08
-8.14443e-11
-2.32172e-10
1.74695e-10
1.38921e-10
-1.03812e-08
-8.55617e-09
1.31124e-08
5.82499e-09
6.82822e-10
-2.12757e-09
-8.26748e-09
9.71223e-09
8.65014e-09
7.71294e-10
-9.70308e-09
2.81647e-10
-2.8769e-09
-8.03083e-09
1.11027e-08
-1.95017e-10
1.14094e-08
-1.01396e-09
-1.5829e-09
-8.01609e-10
8.06869e-10
-1.2132e-11
6.87208e-12
-7.97143e-11
6.7154e-10
2.05045e-10
-7.9687e-10
-4.22357e-10
-3.96665e-11
4.54206e-10
7.81755e-12
-4.83618e-11
-7.68185e-10
1.13762e-10
7.02785e-10
-1.05939e-10
-7.44033e-10
9.80121e-10
-1.84017e-08
-2.02079e-09
-3.43797e-10
3.86593e-11
-1.17218e-10
1.33819e-08
-1.3244e-08
4.09735e-09
-3.49361e-10
5.41333e-10
3.19088e-10
-5.1106e-10
-2.57675e-11
-1.32979e-09
1.13889e-09
2.16676e-10
-1.94085e-09
1.06153e-08
-1.15092e-08
-2.42259e-10
-1.45539e-10
4.40002e-11
-8.73426e-09
1.05184e-08
-9.90032e-09
1.22638e-08
-1.71453e-08
4.56919e-09
3.12256e-10
5.02912e-11
-1.42547e-10
-1.50003e-10
1.5313e-10
7.48885e-10
-9.51462e-11
-5.95278e-08
7.42326e-08
-1.47048e-08
1.00262e-09
-2.18715e-10
-1.11569e-09
3.31785e-10
1.14648e-09
1.03076e-08
-1.37138e-08
2.25966e-09
-1.81787e-09
7.78272e-09
-8.94776e-09
2.98291e-09
-6.73833e-09
5.60551e-09
5.68815e-09
-4.55533e-09
-7.72949e-09
-1.61621e-09
1.67668e-09
7.66901e-09
-1.80629e-10
-9.09153e-08
9.13009e-08
-2.04949e-10
-2.55789e-10
-8.97501e-08
9.01598e-08
-1.53976e-10
8.30781e-08
-1.49287e-09
1.1027e-10
-8.16955e-08
-2.82582e-09
-5.09716e-10
6.18517e-10
8.13222e-10
-4.29115e-10
3.90962e-09
-1.01991e-09
3.49841e-09
-6.38812e-09
-9.21147e-10
8.55563e-10
-1.49297e-08
6.58128e-09
9.86094e-09
1.06242e-09
-1.06434e-08
-2.79914e-10
-6.09031e-09
1.35103e-08
9.92131e-10
-8.4121e-09
1.43768e-08
-4.54589e-09
3.77005e-09
-1.36009e-08
1.53938e-08
1.67569e-09
-1.64073e-09
-1.99041e-10
-2.00645e-08
-7.42443e-09
2.7688e-08
1.44417e-08
-8.79916e-09
-1.88961e-09
8.00961e-09
-1.22103e-08
2.46725e-11
3.32851e-11
-1.17365e-09
-3.61635e-08
-2.33643e-08
8.32814e-09
2.88453e-10
3.64723e-09
-6.99318e-09
1.11855e-08
6.32614e-09
-5.67813e-10
2.98435e-10
4.58078e-10
-1.887e-10
5.7223e-09
-4.79947e-09
3.67224e-09
-4.59506e-09
-4.13507e-10
-6.03416e-10
2.48738e-10
6.15615e-10
-5.4152e-10
1.28124e-11
-7.48118e-10
6.55591e-10
-1.81747e-08
2.41018e-09
1.57959e-09
1.41849e-08
2.03738e-10
-6.60149e-10
-1.11402e-10
-4.17623e-09
-1.5154e-08
1.1555e-09
5.61072e-09
1.20864e-08
-5.23131e-09
-1.24659e-08
1.64052e-08
7.21977e-10
-1.58677e-08
-1.25947e-09
-6.4852e-10
4.26925e-10
5.20029e-10
-3.2108e-10
1.55688e-10
1.65392e-10
-7.45061e-09
-3.53032e-09
4.2426e-09
-1.99883e-10
3.13191e-10
-1.13308e-10
1.10765e-09
-1.56651e-08
-7.85583e-10
9.95689e-09
-1.11122e-08
-9.08606e-10
-3.08269e-10
1.29496e-08
4.43927e-09
-4.18167e-09
-1.32072e-08
7.42426e-11
7.18411e-09
-7.96199e-09
6.38339e-09
-1.62619e-09
-9.02267e-09
8.23124e-09
2.41762e-09
-1.9218e-09
6.84236e-10
-1.39164e-08
-1.0742e-10
-9.24631e-11
2.90231e-10
6.82195e-10
-8.70191e-09
7.62456e-10
1.72769e-08
-1.63416e-09
-1.20754e-08
1.34508e-08
-1.37544e-09
1.22446e-08
1.39317e-08
-1.54981e-08
-1.06782e-08
-4.96924e-10
9.25462e-10
-4.28538e-10
2.72812e-10
-1.29982e-10
-1.4283e-10
1.55751e-10
2.75863e-10
-4.31614e-10
1.32093e-09
-1.06378e-09
-2.57146e-10
-1.05517e-08
9.09144e-10
9.64258e-09
1.94452e-09
-6.23593e-10
8.97366e-09
-1.54092e-08
7.72316e-09
-9.2508e-09
6.0863e-11
3.64754e-09
-4.04241e-10
-2.3144e-09
2.37526e-09
-6.48234e-09
7.81775e-09
-1.33541e-09
-4.98651e-10
4.27174e-09
1.36536e-10
1.72636e-08
-1.44789e-08
-1.63822e-09
-6.10257e-09
5.42543e-09
-3.42764e-10
-1.83733e-10
5.79952e-09
-5.78391e-09
-1.56074e-11
6.86465e-09
4.5458e-09
-3.54573e-11
-1.59543e-08
1.04676e-08
1.77314e-08
5.7965e-09
8.25225e-09
8.18411e-09
-6.84953e-09
1.39897e-09
-1.19507e-08
2.81179e-10
1.39896e-09
-1.30018e-08
2.79745e-09
-4.22195e-10
1.13129e-08
-1.0591e-08
-2.70622e-10
-7.43923e-10
-1.38168e-08
7.70615e-09
7.08551e-10
1.10603e-12
-8.89081e-09
5.00865e-09
-3.01037e-08
-1.25148e-08
-2.82258e-09
1.52056e-09
1.41083e-08
1.10538e-08
-1.08136e-08
-1.43485e-08
1.53907e-08
-3.14675e-09
-1.22439e-08
1.60955e-09
3.99159e-09
-9.9183e-10
-8.88145e-10
-8.32888e-10
1.12482e-09
5.96211e-10
-2.2238e-10
3.41481e-10
3.38977e-10
6.21425e-08
-6.21686e-08
2.60436e-11
6.20624e-08
-6.23665e-08
3.04136e-10
8.37357e-10
6.4732e-08
-6.5559e-08
8.27049e-10
6.41242e-08
6.0779e-10
-2.23978e-10
-6.65045e-08
9.45511e-10
-6.20582e-08
6.19234e-08
1.34808e-10
1.31537e-09
-6.78199e-08
-6.22182e-08
1.60045e-10
1.26456e-08
-6.48633e-10
1.26449e-09
-3.69875e-09
3.0829e-09
3.04104e-10
-1.16642e-09
8.9679e-10
-5.45587e-10
1.37416e-09
-1.60343e-09
7.74862e-10
1.38022e-09
-1.46978e-09
1.22844e-10
-4.67441e-11
-3.44284e-09
2.72022e-09
-1.94783e-09
2.67045e-09
-4.11456e-10
-2.72212e-09
2.48494e-09
-3.52644e-09
-5.82837e-09
5.74785e-10
-5.94451e-10
1.17037e-09
1.10058e-09
-6.46183e-09
7.89925e-09
3.10838e-09
1.97425e-08
-4.35184e-09
-6.85501e-10
2.81877e-10
9.78409e-10
-1.00928e-08
-2.60707e-08
5.28893e-09
-4.24584e-09
-3.18223e-09
2.13913e-09
9.71279e-11
2.44277e-11
3.3265e-10
-2.53663e-09
3.31726e-09
8.97966e-09
7.13849e-10
-1.9929e-10
2.07836e-09
-2.29052e-09
1.81324e-09
1.47174e-08
1.33226e-08
-2.69323e-08
3.27098e-08
6.32813e-09
-2.28371e-08
-1.04234e-08
1.85172e-08
-1.80044e-08
1.0541e-08
-5.19461e-11
-2.16254e-10
-1.20158e-09
-1.67988e-09
-2.90117e-09
3.4146e-09
1.5134e-08
-6.21394e-10
-1.38284e-08
-7.34844e-10
-2.28923e-09
3.01954e-10
1.54703e-08
1.77643e-08
1.3702e-08
7.43808e-10
-1.71215e-09
-1.27336e-08
-1.49622e-09
5.97862e-09
1.25817e-08
-4.6289e-10
-1.02507e-09
-3.6444e-09
2.79453e-09
3.57009e-09
2.49934e-09
1.45109e-08
4.2829e-09
-1.43546e-08
1.80512e-08
-1.76168e-09
2.44058e-09
-3.35999e-09
1.90868e-09
-4.93848e-09
1.2938e-08
-1.19451e-08
-1.40474e-08
3.16888e-10
8.79202e-09
-1.79354e-09
1.49762e-09
1.46629e-09
-8.66149e-09
7.05034e-10
-4.55834e-09
-5.99726e-09
1.21848e-08
-1.4849e-08
1.05967e-09
1.67517e-09
-2.20302e-09
1.68144e-08
-1.62865e-08
-1.10811e-09
1.41887e-08
3.08814e-09
-4.45605e-09
-1.40412e-08
7.573e-09
-1.74086e-08
-8.1688e-09
6.8462e-09
5.87221e-09
1.46173e-08
-1.00454e-08
3.01837e-09
9.44464e-09
9.83801e-09
3.85774e-09
-4.2072e-09
2.17688e-08
-1.92261e-08
5.03036e-09
-1.0606e-08
2.17021e-09
5.68021e-09
1.39506e-08
-3.3589e-10
1.28116e-08
-1.35839e-08
-1.92553e-09
1.73355e-09
-7.30742e-10
9.22728e-10
1.10636e-08
-6.36946e-09
7.39233e-09
-1.10018e-08
1.45817e-09
-4.74499e-09
1.14984e-08
-1.19848e-08
-7.57913e-09
9.22493e-09
9.41779e-09
1.29344e-08
5.94544e-10
-1.38649e-08
1.44283e-09
7.82564e-10
-1.11408e-08
-6.72577e-09
1.02875e-08
-1.37797e-09
2.51303e-09
-8.99035e-09
4.78097e-09
-5.29305e-09
1.1609e-08
-3.47852e-09
-1.18237e-08
3.6932e-09
-4.47114e-09
1.13352e-08
1.82487e-09
1.11558e-09
-5.04758e-09
-1.78298e-08
1.05161e-08
1.23613e-08
7.30552e-10
-1.10446e-08
-1.00327e-08
1.60297e-08
1.26238e-08
2.87253e-09
-9.81607e-09
-1.33354e-08
-3.2479e-10
-1.27598e-08
1.6165e-10
-7.67899e-10
1.1709e-08
1.25485e-08
-8.2381e-09
1.66831e-08
-1.60535e-08
3.65331e-09
-4.89339e-10
1.78456e-09
1.28897e-08
-3.92932e-09
-1.27182e-08
-5.03387e-09
1.82571e-09
4.60712e-09
1.2318e-08
-7.24184e-09
9.6866e-10
-1.65753e-09
5.94676e-10
-8.62678e-10
5.90996e-09
2.63998e-08
-7.15733e-11
-9.58716e-09
9.65874e-09
2.85967e-08
-2.23497e-08
2.21101e-08
1.97601e-08
-1.27206e-08
-2.69932e-09
1.51263e-08
1.69179e-10
-1.21443e-08
-4.46349e-10
-6.01185e-09
-1.85233e-09
2.19063e-09
1.48658e-09
-4.44239e-10
-1.11309e-08
1.15602e-08
1.49492e-11
3.05372e-09
-5.10468e-09
-1.11358e-08
1.06756e-08
-9.18763e-10
-1.08509e-08
-2.29001e-10
-1.13332e-08
-2.51249e-09
-1.2074e-08
2.16664e-09
7.89996e-09
5.14668e-09
-4.35478e-10
-1.18196e-08
1.18108e-08
5.63026e-10
-8.86104e-09
5.14166e-09
-1.53662e-09
2.21725e-09
-2.04907e-09
-1.30584e-08
-1.25568e-08
1.20498e-08
-1.01854e-08
-1.58051e-08
1.00362e-08
9.28823e-09
8.24087e-10
2.70156e-09
-1.22887e-08
1.15029e-08
1.66427e-09
3.90087e-09
2.81411e-10
-4.80028e-10
-2.14891e-10
-4.15234e-09
2.52323e-09
-6.60131e-10
1.68631e-10
-1.9866e-10
3.00295e-11
-2.69586e-09
1.30873e-08
2.23231e-09
2.53733e-09
1.12019e-10
-1.36147e-09
-5.34665e-10
-2.29957e-09
-2.63476e-10
1.30393e-08
1.01054e-08
-3.13885e-10
6.78864e-09
-1.2422e-09
-5.23255e-09
-9.82546e-09
-5.13183e-09
1.27955e-10
4.06758e-11
4.87451e-09
1.33201e-09
-1.72511e-08
-3.23446e-10
-7.4286e-10
-2.77845e-09
1.02702e-09
3.09741e-09
6.19448e-08
-8.56877e-11
-6.18591e-08
6.23693e-08
1.89063e-10
-6.25583e-08
-1.41184e-08
-2.65598e-10
1.44682e-08
-8.41616e-11
3.12308e-09
-1.78061e-09
2.49289e-09
1.80075e-09
-4.5152e-09
-2.95257e-10
-5.06246e-10
4.10935e-10
-9.33881e-11
4.10001e-10
-2.7413e-10
1.97123e-08
1.0495e-09
-1.58873e-08
-1.31936e-10
-1.9369e-09
1.25472e-08
2.27946e-09
1.80335e-09
5.34525e-09
-2.12287e-09
-7.72332e-08
-2.41779e-08
-4.97526e-09
1.58456e-08
2.45567e-09
-3.57553e-11
-2.92395e-09
-1.05209e-09
2.95615e-10
-2.6859e-10
-9.89735e-09
-3.63956e-10
1.02613e-08
-1.08776e-08
-6.58511e-09
1.07369e-08
-9.49101e-09
8.75291e-09
2.3371e-10
1.46408e-09
9.43344e-09
-9.37698e-09
-5.64641e-11
5.80509e-10
8.65959e-11
1.07686e-08
5.62626e-10
-7.4394e-10
-7.4442e-11
-1.4247e-08
-4.63913e-10
-1.38325e-08
1.27137e-08
-1.18923e-08
-6.60355e-08
6.49917e-08
1.04381e-09
2.28354e-10
-2.03926e-10
1.20453e-08
-2.06613e-10
7.95307e-12
-2.06629e-09
2.75895e-09
-3.42166e-09
-1.34709e-08
-1.62426e-09
2.57415e-09
-4.69905e-09
-1.41191e-08
1.56705e-09
5.55428e-09
9.69273e-09
-9.05947e-09
-2.30039e-10
2.34263e-11
-9.31026e-09
-1.33845e-08
1.51047e-10
-6.26965e-08
2.36246e-10
6.24603e-08
6.95191e-10
6.3429e-08
-2.23733e-10
-1.63734e-09
-1.44989e-08
1.07997e-10
-6.34056e-08
6.32976e-08
1.8351e-10
-6.29468e-08
6.27633e-08
3.30965e-10
6.18002e-08
1.50268e-10
-6.19504e-08
6.16314e-08
1.68757e-10
-8.789e-08
8.84993e-08
-1.48554e-12
9.33942e-08
-9.31008e-08
-2.67379e-10
-8.66291e-08
-4.33869e-10
9.33532e-08
-1.82987e-10
-8.49158e-08
-7.67802e-10
9.3484e-08
1.7337e-10
-5.22297e-10
1.96125e-09
9.23601e-08
-6.93128e-08
6.21408e-08
-6.23214e-08
-6.29523e-08
6.1489e-08
1.42358e-10
-3.13162e-09
2.95268e-09
-1.41756e-08
4.61862e-11
8.1769e-11
1.26132e-09
8.7191e-09
-1.13843e-08
3.83114e-08
-3.45449e-08
-1.67682e-08
1.38057e-08
-3.71387e-11
-2.07025e-10
1.40243e-10
6.04191e-10
-1.21053e-10
3.09608e-10
4.44503e-09
1.04319e-09
-3.57955e-09
-1.57449e-10
1.96108e-10
-1.13449e-10
-2.58127e-09
1.32343e-08
2.43429e-09
-1.44294e-08
-2.63011e-09
-3.30034e-09
5.53705e-09
1.04712e-09
-2.63234e-09
1.43235e-08
-1.17511e-09
-1.80189e-09
1.92583e-09
-8.11729e-09
-1.90716e-08
-1.34953e-08
8.01588e-09
5.79634e-09
-2.09037e-10
-5.65618e-10
2.96528e-09
1.44853e-08
2.28389e-09
-1.85496e-09
-3.76049e-10
4.26302e-10
-2.33986e-10
1.59394e-08
-5.91384e-10
-1.5712e-08
-1.63819e-11
-2.1672e-10
3.29644e-10
-2.57978e-10
3.43261e-09
-1.63023e-08
4.40987e-10
-1.50376e-09
-2.09e-09
-2.29898e-09
1.56963e-08
-9.05929e-08
-1.38874e-10
9.16803e-08
-1.90343e-10
-8.91654e-08
-4.76685e-10
9.31035e-08
-2.75237e-10
-9.2914e-08
-5.42493e-10
-1.58487e-09
1.68219e-08
9.19816e-08
-1.96853e-10
2.9095e-11
-2.20985e-10
9.78827e-09
2.48718e-09
-7.34527e-09
-1.22209e-08
-5.6775e-09
8.40813e-09
1.49444e-09
-6.79419e-09
-5.99452e-09
9.04015e-09
-6.31587e-11
1.01383e-08
1.95008e-08
-1.79868e-08
3.08521e-09
-1.27375e-08
3.10449e-09
-6.99684e-08
3.93286e-09
-2.0599e-08
-1.30672e-08
-4.71836e-10
-5.93569e-09
-1.52912e-08
9.08263e-09
-1.51264e-08
4.11801e-10
3.48443e-10
-1.91415e-09
-1.66706e-08
1.70863e-08
7.19543e-09
-7.70515e-09
-4.60107e-09
1.53038e-08
-1.67722e-09
6.96897e-10
-8.8785e-10
1.04274e-10
1.19648e-08
3.32111e-09
7.09115e-08
-1.82487e-08
7.14626e-10
-1.50348e-08
-2.26324e-10
-2.63032e-10
-1.06706e-10
6.09516e-08
-6.12268e-08
-6.33765e-08
-6.31437e-08
-6.42223e-11
-2.62213e-10
-9.25875e-08
-6.04536e-08
6.24148e-08
6.5102e-08
-6.02802e-08
6.45797e-08
-6.04632e-08
6.38119e-08
-6.07306e-08
6.3378e-08
9.23104e-08
2.68066e-10
-6.35048e-09
7.51201e-08
-6.54485e-08
3.35543e-11
-3.35543e-11
1.76022e-10
-3.16852e-10
1.54802e-08
-1.77824e-11
1.77824e-11
3.1663e-10
1.52275e-09
1.39061e-08
1.34185e-08
-2.72062e-09
3.71987e-09
6.62254e-09
1.80052e-09
3.57874e-10
-2.42716e-10
-2.9742e-09
1.45853e-08
1.48451e-08
-4.28836e-09
1.18196e-08
1.74176e-10
1.40076e-10
2.72171e-09
-8.06405e-10
-1.51692e-09
-5.84115e-09
-2.05163e-10
-3.87171e-10
1.531e-08
2.41982e-10
5.64598e-11
1.4431e-08
-2.623e-08
1.78022e-08
2.66549e-09
1.24494e-09
2.50028e-09
-3.72275e-09
1.93401e-08
-1.81177e-08
-7.38651e-11
1.08205e-10
-1.44089e-09
-7.92108e-08
-7.07537e-08
1.28645e-09
-4.50753e-10
6.29539e-10
2.30031e-08
1.86078e-08
-6.37278e-09
7.49939e-11
-4.26043e-09
-2.52174e-09
2.99488e-08
1.57834e-10
1.48184e-08
7.35799e-08
4.53767e-11
5.10592e-10
-1.48527e-10
-2.06969e-10
-3.62148e-09
2.43004e-08
-1.4869e-08
9.43906e-10
-1.41883e-08
-4.8215e-11
2.03958e-08
-2.872e-08
9.45514e-10
1.90945e-09
-2.51308e-10
)
;

boundaryField
{
    back
    {
        type            empty;
        value           nonuniform 0();
    }
    ingreso
    {
        type            calculated;
        value           nonuniform List<scalar> 
14
(
-1.54286e-08
-1.54288e-08
-1.54288e-08
-1.54288e-08
-1.54286e-08
-1.54283e-08
-1.54288e-08
-1.54288e-08
-1.54286e-08
-1.54286e-08
-1.54288e-08
-1.5428e-08
-1.5428e-08
-1.54286e-08
)
;
    }
    salida
    {
        type            calculated;
        value           nonuniform List<scalar> 2(1.01411e-07 1.14589e-07);
    }
    front
    {
        type            empty;
        value           nonuniform 0();
    }
    defaultFaces
    {
        type            calculated;
        value           uniform 0;
    }
}


// ************************************************************************* //
