/*--------------------------------*- C++ -*----------------------------------*\
  =========                 |
  \\      /  F ield         | OpenFOAM: The Open Source CFD Toolbox
   \\    /   O peration     | Website:  https://openfoam.org
    \\  /    A nd           | Version:  7
     \\/     M anipulation  |
\*---------------------------------------------------------------------------*/
FoamFile
{
    version     2.0;
    format      ascii;
    class       volVectorField;
    location    "97";
    object      U;
}
// * * * * * * * * * * * * * * * * * * * * * * * * * * * * * * * * * * * * * //

dimensions      [0 1 -1 0 0 0 0];

internalField   nonuniform List<vector> 
591
(
(0.000836581 -7.1459e-06 1.21637e-18)
(0.000831986 -6.78466e-06 -6.62013e-19)
(0.000854424 1.64031e-05 5.70202e-20)
(0.00086703 -2.4214e-05 -1.49014e-19)
(0.000854603 -9.34499e-06 2.25437e-19)
(0.000803546 -3.86612e-05 -1.39565e-19)
(0.000564113 -0.000230602 8.05944e-19)
(0.000803783 4.36143e-06 2.1057e-18)
(0.0057244 0.00250999 9.87885e-19)
(0.000814438 -2.17277e-06 2.44648e-18)
(4.61471e-05 0.000161235 1.21782e-18)
(0.00093835 0.00139358 9.40663e-21)
(0.000801208 4.21408e-06 1.32249e-18)
(0.00160312 0.00240385 -7.8732e-19)
(0.000803302 1.45764e-06 -4.46229e-19)
(4.57319e-05 -0.00015606 2.26968e-22)
(0.000140603 0.000670217 7.04754e-19)
(0.000817709 7.91828e-05 -4.96862e-19)
(0.00189939 0.000392206 4.73716e-19)
(0.0013597 0.000256327 -2.47047e-19)
(0.000831644 -8.79665e-06 3.73069e-19)
(0.00340049 0.00655982 -8.14789e-20)
(2.34188e-05 6.42226e-05 2.70847e-19)
(0.0008361 -2.48737e-05 -4.51476e-19)
(6.60189e-06 -1.15212e-05 3.5878e-19)
(0.000790722 4.24444e-05 0)
(9.45664e-05 0.000467496 1.59918e-19)
(0.000571804 -9.67441e-07 -1.78766e-19)
(0.000764564 4.70682e-05 1.14903e-18)
(0.000806655 6.96431e-05 5.84488e-19)
(4.96198e-05 -5.4702e-06 -5.1995e-24)
(2.23452e-05 -3.94129e-05 3.52038e-19)
(2.87052e-05 -2.57493e-06 -4.64042e-20)
(3.80971e-05 -1.22382e-05 0)
(4.66924e-05 -1.28612e-05 1.13101e-18)
(0.0011709 0.000139671 1.79828e-19)
(2.41307e-05 -4.24878e-06 4.46971e-20)
(0.000824286 4.62696e-07 3.13575e-23)
(2.33144e-05 3.86507e-05 2.65928e-19)
(-5.99405e-06 -6.36011e-05 -8.53528e-19)
(0.000658593 -0.000192014 9.58672e-19)
(1.87086e-05 -5.03438e-06 4.54647e-20)
(0.000813163 1.7171e-05 -1.57891e-18)
(0.000832154 4.99108e-05 -6.90883e-19)
(1.20991e-05 -5.66681e-06 0)
(4.84126e-05 4.00994e-06 8.51543e-20)
(0.00134895 0.00450322 8.92754e-19)
(6.83562e-05 1.06378e-05 8.63296e-20)
(0.000802416 1.65752e-05 0)
(0.00039369 -0.000230213 6.76951e-19)
(0.000389658 0.000266629 5.1174e-21)
(0.000403651 3.31099e-05 -1.0034e-18)
(0.00634781 0.0109404 -7.68502e-19)
(0.00622447 0.0107954 1.52771e-20)
(0.00561443 0.0103783 1.45568e-18)
(0.000805805 4.6556e-05 0)
(6.12865e-05 2.5491e-05 0)
(0.000320067 -5.94515e-06 2.55201e-23)
(5.60824e-05 6.7816e-06 -3.46326e-19)
(0.000812381 -7.01212e-06 0)
(0.000661662 2.84262e-05 3.17432e-19)
(0.000845254 2.62373e-05 2.20738e-18)
(0.000810774 3.86076e-05 -5.37685e-19)
(0.000800075 1.16911e-05 -3.15634e-19)
(0.00171346 0.000487324 5.42464e-19)
(0.000810186 3.1295e-05 -1.14687e-18)
(0.000838135 3.52042e-05 -5.23888e-19)
(7.06293e-05 -7.11346e-06 -1.73344e-19)
(0.000690158 0.00225846 0)
(0.00084513 4.8774e-05 0)
(0.000791629 2.60741e-05 -1.39243e-18)
(3.36813e-05 1.33255e-05 0)
(0.000293016 0.000263406 3.26737e-19)
(3.25368e-05 -1.54004e-05 0)
(3.45675e-05 -5.50692e-06 1.59411e-19)
(6.46934e-06 -3.48892e-05 -3.36534e-20)
(0.000802693 7.89904e-05 2.46882e-19)
(3.9068e-05 8.31974e-06 0)
(0.000811723 5.54554e-05 4.47374e-19)
(0.000781573 0.000295442 2.10648e-19)
(0.000960984 6.80191e-05 -3.97652e-20)
(3.83753e-05 1.94422e-05 -4.51689e-20)
(3.59518e-06 -1.21406e-05 0)
(0.000442679 0.000210912 1.70125e-19)
(2.68904e-06 1.65514e-05 0)
(0.000805949 4.72062e-05 -6.0746e-19)
(0.000645268 -0.000115585 0)
(5.67173e-05 -4.67973e-06 -1.74413e-19)
(1.11295e-06 -1.69914e-05 0)
(0.00083614 0.000241998 -3.41125e-19)
(2.10166e-06 -6.766e-06 0)
(0.000432198 0.00031962 -1.34658e-23)
(0.000544477 0.000107742 0)
(0.000815966 4.40595e-05 -3.0864e-24)
(2.19363e-06 9.88168e-06 -4.21551e-20)
(0.000472608 -2.78924e-05 1.76281e-18)
(0.00101852 7.34084e-05 4.15844e-20)
(0.00078593 4.71541e-05 6.41467e-22)
(0.000747451 0.000659645 2.69405e-19)
(6.89583e-06 3.91707e-05 0)
(-6.21546e-06 -1.92109e-05 -3.12144e-19)
(-3.70882e-05 -2.06369e-05 -1.10163e-18)
(5.01759e-06 6.48851e-05 -5.96142e-19)
(0.000594016 -2.87146e-05 0)
(9.14143e-06 8.82448e-05 0)
(0.000820606 3.42552e-05 2.18126e-18)
(0.000800434 3.64997e-05 1.5337e-18)
(0.000450225 -0.00011189 0)
(3.90666e-05 0.000207696 -8.95031e-19)
(1.18228e-06 0.000151431 4.96722e-19)
(5.62335e-05 0.000390653 6.25058e-19)
(0.00031134 6.59709e-05 -9.36847e-19)
(0.000801888 1.99614e-05 1.37364e-19)
(0.000257043 -7.06915e-05 5.31013e-19)
(4.19519e-06 2.4757e-05 0)
(1.8766e-05 0.000269219 -1.09379e-18)
(0.000326073 0.000318431 -1.6165e-19)
(-1.71999e-06 -1.41881e-05 1.46509e-19)
(0.000669998 0.000806026 0)
(0.000374543 0.000381025 5.74221e-20)
(0.000825347 2.89469e-05 1.07024e-18)
(0.000799734 1.73548e-06 -2.72425e-18)
(6.40267e-06 8.58589e-06 0)
(0.000659488 -4.11453e-05 -1.12266e-19)
(0.000323957 -0.000149297 1.24271e-18)
(0.00262091 0.000810286 -3.36478e-19)
(8.06461e-06 0.000117437 -6.1305e-19)
(8.56377e-06 0.000145466 1.61928e-18)
(0.000658898 2.55351e-05 -3.89653e-20)
(5.42165e-05 -1.63694e-05 -7.49873e-19)
(0.000811871 3.88948e-05 -3.89996e-19)
(0.000709514 2.75968e-05 -4.10402e-20)
(3.1663e-05 0.000316121 -5.96967e-19)
(0.00050346 5.20176e-05 -4.93747e-19)
(4.13678e-05 -4.35457e-06 1.56091e-19)
(0.000842078 4.1101e-05 -1.08765e-18)
(0.00153182 0.000234868 -1.13642e-18)
(5.17673e-06 5.21515e-05 4.96243e-19)
(0.00081335 3.68953e-05 -5.03326e-19)
(0.000924476 0.000554205 -7.84817e-20)
(0.000149781 0.000779168 0)
(0.000601203 6.22889e-05 0)
(0.00027831 4.02305e-05 -1.60893e-18)
(5.87944e-05 5.21143e-05 -1.37358e-18)
(2.69858e-05 1.74819e-05 0)
(0.00424772 0.00740085 -1.01945e-20)
(0.00422582 0.00737247 3.16484e-20)
(0.00442799 0.00757521 -4.97375e-21)
(0.00420559 0.00773347 0)
(0.00419805 0.00759928 5.77177e-19)
(0.00424468 0.00740195 -9.19975e-20)
(0.00420935 0.00804088 4.84424e-19)
(0.00429043 0.00742333 0)
(0.00420776 0.00853369 6.16713e-19)
(0.004327 0.00745199 2.2389e-19)
(0.000835292 2.1982e-05 -1.37218e-18)
(0.000783899 6.14992e-05 0)
(0.000210416 3.81397e-05 1.27656e-19)
(4.46257e-05 1.23051e-05 8.7151e-20)
(7.23889e-05 3.78003e-05 6.79763e-19)
(9.88806e-05 3.23566e-05 -3.4154e-19)
(9.06673e-05 -2.20799e-06 0)
(4.16758e-05 2.78731e-06 8.18053e-20)
(0.000207904 0.000120412 0)
(0.000159946 2.77418e-05 -5.2413e-20)
(0.00034825 0.000214342 -5.09084e-21)
(5.11245e-05 3.73175e-05 -4.37488e-19)
(8.3575e-05 1.96243e-05 -8.52148e-20)
(8.52613e-05 5.37924e-05 1.31146e-21)
(0.000261841 0.000359421 -6.65958e-19)
(0.000110275 0.000990892 0)
(3.84366e-05 4.6974e-05 3.42932e-19)
(0.000199693 0.00174063 0)
(0.000208953 0.000245468 7.04425e-19)
(3.0594e-05 -2.9706e-06 1.11451e-19)
(0.000494364 0.000159227 -1.72241e-19)
(0.00077636 2.77347e-05 -1.92342e-18)
(3.63068e-05 -1.75484e-06 4.84399e-24)
(0.000139965 1.28256e-05 2.24509e-19)
(0.00024662 7.91775e-05 -8.99003e-20)
(0.00088313 0.000695461 3.34833e-19)
(0.000727434 0.00163463 -9.23244e-21)
(0.000396737 0.00141856 -9.38077e-21)
(0.00103088 0.000547742 0)
(9.00013e-05 -2.1151e-05 1.11829e-18)
(0.000106639 4.89541e-06 -4.42821e-20)
(0.000473228 -0.000270335 -1.13595e-18)
(0.000824991 4.35471e-05 0)
(0.000175074 -1.68582e-05 3.63177e-19)
(0.000305767 0.00129715 0)
(0.00108921 0.00077399 -7.29956e-20)
(0.00082705 2.77451e-05 -1.86478e-19)
(6.53656e-05 -2.4034e-05 -2.99863e-19)
(0.000841794 0.000314614 -2.07968e-20)
(4.44413e-05 -2.11367e-05 -5.99254e-19)
(0.000227891 0.000165214 8.63586e-20)
(0.000232074 0.000303637 -3.44896e-19)
(0.000898332 0.000253225 0)
(0.000826714 5.7664e-05 0)
(0.000267247 0.000121884 1.76785e-19)
(0.000232125 -1.80177e-05 7.34461e-24)
(0.000185115 0.00019731 0)
(0.000306991 0.000645175 -5.55525e-21)
(0.000362417 -3.10478e-05 0)
(0.000382647 0.000598162 0)
(0.000103839 7.29456e-05 -1.3462e-21)
(0.000810667 3.11819e-05 -9.57087e-19)
(0.000805296 1.71279e-05 7.96834e-19)
(0.000123208 4.67189e-05 -1.49801e-19)
(0.000973331 0.000145936 8.50062e-20)
(0.000841263 3.81351e-05 3.33532e-19)
(0.00082253 3.50414e-05 -2.93967e-19)
(0.00103334 0.000421132 0)
(0.000448901 0.000108379 6.24197e-19)
(0.000913912 0.000323783 2.09058e-20)
(0.000592856 0.000150421 0)
(0.000275183 0.000443705 4.09512e-19)
(0.000263234 0.000208023 -8.43892e-20)
(0.00110463 0.000384721 -7.81817e-19)
(0.000640796 0.000102457 -1.7922e-19)
(0.000822324 7.66612e-05 -7.45743e-21)
(0.000845812 2.31135e-05 9.39908e-20)
(5.24649e-05 -8.54089e-05 -1.98053e-18)
(0.000746316 0.000379552 2.19158e-19)
(0.00068626 6.93023e-05 2.30556e-20)
(0.00071689 0.000278986 1.62212e-23)
(0.000740453 0.000461659 -4.09538e-19)
(0.000853737 1.61565e-05 9.06712e-20)
(6.7829e-05 7.14571e-05 0)
(0.000663684 0.000424906 -4.65757e-20)
(0.000181571 8.28527e-05 0)
(0.000374233 0.000501558 -2.64755e-19)
(0.000312558 0.000157006 0)
(0.000685843 0.000205759 3.55089e-19)
(0.000660266 0.000259482 -4.37087e-20)
(7.91314e-05 9.68028e-05 6.18925e-19)
(0.00088629 9.72222e-05 -1.63848e-18)
(5.1735e-05 1.76093e-05 2.57093e-19)
(0.000898995 7.39324e-05 -1.68587e-18)
(0.000849944 9.09836e-05 1.63022e-19)
(0.000814917 3.74349e-05 1.91194e-18)
(0.000822401 3.31525e-05 -1.32794e-19)
(0.000746806 7.04363e-05 0)
(0.000805224 1.95075e-05 8.95276e-19)
(0.000973611 0.000237875 -4.26926e-19)
(0.000789395 0.000100868 -4.83545e-19)
(0.000783648 0.000237759 -8.80873e-20)
(0.000194947 -0.000195791 -2.07482e-18)
(0.000764296 8.1677e-05 8.87184e-19)
(0.000644332 0.000591517 0)
(5.77869e-05 -0.000122613 0)
(0.00123017 0.000476285 4.9711e-19)
(0.000550636 -5.6035e-05 -3.27048e-18)
(0.00135555 0.000417657 5.76232e-19)
(0.00125468 0.000719764 -6.38781e-20)
(0.000817267 3.43797e-05 -2.1267e-19)
(0.000844092 6.67034e-05 -1.42765e-18)
(0.000814461 2.77301e-05 1.58698e-18)
(0.000814984 2.05721e-05 9.77659e-20)
(0.00067578 0.000353441 -4.40243e-20)
(9.8732e-05 0.000113081 8.80769e-24)
(0.000766202 -2.89661e-05 2.64887e-19)
(0.000207568 -0.000259706 -7.30966e-19)
(0.000640629 0.000182422 0)
(0.000726372 5.12305e-05 9.89983e-20)
(0.000720403 9.6722e-06 -3.80654e-19)
(0.00039714 0.000162748 3.93222e-20)
(0.00081318 0.000510439 -1.65418e-19)
(0.000144576 6.40922e-05 4.05485e-25)
(0.00082073 0.000413014 0)
(0.000990147 0.000315645 4.15604e-20)
(0.000769867 -6.10627e-05 -6.15869e-19)
(0.000355865 9.30277e-05 4.97646e-19)
(0.000905481 0.000427952 0)
(4.43145e-05 2.68082e-05 1.33659e-19)
(0.000495307 0.000261304 2.13873e-19)
(0.00054793 -0.000171762 -7.09144e-19)
(9.27936e-05 -0.000175626 -1.0556e-18)
(0.000827043 4.08465e-05 -4.86509e-19)
(0.000760432 -6.29224e-05 -1.94505e-19)
(0.000550847 0.000728816 -1.17401e-18)
(0.000855826 4.61484e-05 -6.7435e-20)
(0.000565002 -1.01932e-05 1.28202e-18)
(0.000719305 9.95038e-05 2.27686e-20)
(0.000544769 0.000203514 -1.65625e-19)
(2.36086e-05 -1.86034e-05 -8.75506e-20)
(0.000149328 -6.11168e-05 2.40506e-18)
(1.22465e-05 5.35515e-07 -1.9478e-19)
(0.000843569 0.000119493 3.63598e-19)
(0.000682437 0.00013481 0)
(0.000169523 -0.000112107 -1.04779e-18)
(0.000110691 -2.80246e-05 3.12677e-19)
(9.1536e-05 -4.14078e-05 1.51602e-23)
(0.000811228 0.000105481 -3.19134e-19)
(0.000144349 -2.39698e-05 0)
(0.000597199 0.00023806 0)
(0.000111386 0.000321852 -3.62729e-19)
(0.000869487 0.000101737 2.10758e-18)
(9.95567e-06 7.08351e-07 0)
(0.000889153 5.21295e-05 0)
(3.48666e-05 -2.46347e-05 0)
(0.000815206 4.89635e-05 -4.46618e-21)
(0.000782479 -2.88171e-05 0)
(0.00426084 0.00740756 8.06905e-20)
(0.00436291 0.00748804 1.43326e-19)
(0.000842711 -1.77952e-05 0)
(0.000798766 -3.39222e-05 8.11756e-19)
(0.000151442 0.000114836 1.49155e-19)
(0.000863232 6.67005e-05 8.07966e-19)
(0.00012646 9.22059e-05 2.34308e-20)
(0.000792592 -2.02117e-05 6.23973e-19)
(3.04086e-05 7.7902e-06 0)
(2.2082e-05 -1.12445e-05 -4.48302e-20)
(0.000907626 4.7292e-05 -4.86346e-19)
(2.44036e-05 -2.79498e-05 -6.69539e-19)
(0.0007701 0.000126883 -4.23064e-20)
(0.000169246 0.000152558 -1.88033e-19)
(0.000813813 3.19622e-05 0)
(0.00468253 0.00815359 9.00276e-22)
(0.000193998 0.000791778 3.3335e-19)
(9.71354e-05 -6.79168e-05 -9.14169e-19)
(4.94062e-05 -3.4561e-05 -1.16833e-18)
(0.000590534 1.30492e-05 1.89646e-20)
(0.000585592 0.000403738 0)
(0.000425525 0.000445661 -2.56243e-19)
(6.50466e-05 -6.42495e-05 1.18328e-18)
(0.000551987 -1.39779e-06 7.67835e-20)
(3.65262e-05 9.57274e-07 4.06932e-19)
(0.000724939 -4.18435e-05 1.17111e-18)
(0.000812899 3.24652e-05 -6.03743e-19)
(4.82312e-05 -5.37451e-05 1.7088e-18)
(0.000841155 -4.2383e-05 -6.24402e-24)
(0.000566594 6.16909e-06 -3.75122e-20)
(0.000877732 7.21687e-05 0)
(0.000846436 5.15116e-05 0)
(0.00591566 0.0072435 2.59869e-19)
(1.24976e-05 -2.99298e-06 -1.19549e-19)
(9.39862e-05 -0.000116207 7.72747e-19)
(0.00073863 0.000114296 -6.96147e-19)
(1.50867e-05 2.64017e-07 2.01469e-19)
(0.000652956 -3.60282e-05 -7.23497e-19)
(0.000755996 3.54077e-05 1.55738e-18)
(0.000715945 0.000157349 -3.55296e-19)
(0.000807337 -1.16082e-05 3.60752e-19)
(6.24847e-05 -3.69347e-05 1.11554e-18)
(0.000801637 6.48505e-06 -3.22555e-19)
(0.000874814 3.60365e-05 0)
(0.00055113 0.000301533 4.2086e-20)
(0.000867787 4.95067e-05 -9.47312e-19)
(1.32639e-05 2.90512e-06 9.11187e-19)
(0.000861647 4.12375e-05 9.65842e-19)
(0.000863447 2.52169e-05 -9.64274e-19)
(0.000766021 7.83439e-07 -5.68927e-19)
(0.000549111 -8.36854e-05 -5.25421e-19)
(0.00432996 0.00745423 2.47001e-19)
(0.00422285 0.00752809 -2.53543e-19)
(0.00422048 0.00758588 2.66928e-19)
(0.00425645 0.00741136 1.97942e-19)
(0.000845139 -3.76877e-05 1.44211e-19)
(0.00447698 0.0075148 0)
(0.00440451 0.00751877 -3.86761e-19)
(2.14306e-05 -1.42269e-07 -9.97846e-19)
(0.00417013 0.00746852 -6.33575e-20)
(0.00414562 0.0074318 -2.21487e-19)
(0.00602919 0.0106049 0)
(0.00654025 0.0111869 3.71388e-20)
(0.00600911 0.0105746 0)
(0.00655594 0.0112105 1.30902e-19)
(0.00599651 0.0105987 2.69642e-19)
(0.00659265 0.0112274 1.24635e-20)
(0.00593538 0.0106113 -7.76668e-19)
(0.00662292 0.0111464 8.15409e-21)
(0.00390342 0.00919743 -1.90785e-19)
(0.00418634 0.00748748 3.89975e-21)
(0.00423734 0.00755142 7.93511e-20)
(0.00415012 0.00743412 4.11984e-20)
(0.000895063 0.000196397 4.46554e-20)
(6.86826e-06 9.55119e-07 0)
(0.000726435 -0.000102204 0)
(0.000657359 5.72048e-05 0)
(0.00244554 0.00111819 4.23167e-21)
(0.000758652 -3.04674e-05 1.72506e-19)
(3.52528e-05 4.31087e-06 4.53881e-20)
(5.566e-06 -2.15955e-05 1.65232e-18)
(0.000862104 5.01009e-06 0)
(2.42964e-05 1.05673e-05 -1.91653e-19)
(0.000139102 0.000215956 0)
(1.12638e-05 -8.09449e-07 0)
(8.75021e-06 -9.09115e-07 0)
(0.000837139 0.000148686 1.13726e-20)
(0.00081106 -1.81322e-05 1.79521e-19)
(3.84043e-05 0.000257219 -1.03319e-23)
(0.000156335 0.00026684 -1.8413e-18)
(0.000612087 0.000326051 -8.56693e-20)
(0.000902834 0.000113624 6.01981e-19)
(0.000600564 -0.000154095 6.74484e-19)
(0.000358269 0.00111538 0)
(0.000482027 0.000575381 2.71442e-18)
(8.82318e-05 0.000138204 -1.80251e-18)
(1.47811e-05 -2.50168e-07 0)
(0.000822688 -6.38522e-05 3.64041e-20)
(1.38434e-05 3.13812e-05 1.64387e-18)
(0.00089437 3.58081e-05 2.71024e-19)
(-3.1768e-05 7.65108e-05 3.81136e-18)
(0.00092618 4.1817e-05 -2.68894e-19)
(0.00133462 0.000154769 7.47107e-19)
(2.88132e-05 -9.52005e-06 8.25388e-20)
(3.05547e-05 2.25101e-06 -8.5879e-19)
(5.07603e-05 0.000134541 0)
(0.00091991 8.91848e-05 5.98182e-19)
(0.000499177 0.00036665 2.37064e-19)
(0.000614776 1.72691e-05 -3.88897e-20)
(0.000788101 5.09386e-06 2.57277e-19)
(0.00072929 -0.000140097 0)
(0.00632095 0.0108953 -1.68049e-19)
(0.00637871 0.0109731 4.05805e-19)
(0.00615996 0.01073 -6.18396e-19)
(0.00650125 0.0111321 -8.09751e-20)
(3.16731e-05 0.000112142 8.00248e-19)
(0.000930005 6.17135e-05 1.44272e-22)
(0.0064113 0.0110056 -3.86434e-19)
(0.00628192 0.010845 5.48428e-19)
(0.00608007 0.0106717 -4.16788e-19)
(0.00652177 0.0111646 -6.81362e-20)
(7.87889e-05 0.000490632 -2.01756e-20)
(4.75885e-05 -0.00019165 -7.92557e-19)
(0.000639436 -1.97724e-05 -7.66469e-19)
(0.00073147 0.000219471 0)
(0.000800306 1.82641e-07 0)
(0.00018952 0.000385633 3.3619e-19)
(0.000603328 0.000510833 -5.41687e-19)
(5.52065e-06 -9.71934e-07 1.78328e-19)
(0.000200088 0.000466648 -7.38163e-19)
(0.00102284 0.000979896 -1.12666e-19)
(0.000754227 0.000166416 0)
(0.000795844 0.000184928 1.30971e-19)
(0.00634948 0.00588338 1.13181e-18)
(0.000736014 0.00113121 8.2643e-20)
(3.53284e-05 3.4255e-05 -7.44411e-20)
(0.000807834 1.08821e-05 0)
(0.000870571 2.27404e-05 -3.56774e-20)
(2.91275e-05 2.07628e-06 -1.96661e-19)
(2.54165e-05 3.40866e-06 1.9293e-19)
(0.000834792 1.25778e-05 5.37003e-19)
(0.000985361 0.000113992 6.58063e-19)
(0.000535875 4.61805e-05 0)
(0.000221591 -0.000269041 -3.98113e-19)
(0.000920632 0.000143033 3.89437e-19)
(2.70096e-06 -4.65686e-05 2.02918e-19)
(0.0014542 0.000442576 -2.58027e-18)
(0.000560986 -1.32616e-05 0)
(0.00080068 0.000142096 3.75326e-19)
(9.62031e-05 0.000386782 0)
(0.00118874 0.00816145 4.62013e-19)
(0.000497443 0.00049736 -1.22415e-18)
(0.000540561 0.00101779 -1.83699e-19)
(0.000888459 1.38031e-05 -1.46002e-19)
(1.07353e-05 2.21517e-05 0)
(0.000961875 7.82659e-05 6.11382e-19)
(0.0041062 0.00739508 8.1421e-20)
(0.00417096 0.00747299 4.72994e-20)
(0.00450077 0.00751752 4.54042e-19)
(0.004446 0.0075431 -3.29411e-19)
(0.00647516 0.0111091 8.10523e-20)
(0.00391484 0.00714603 -9.60033e-22)
(0.00550776 0.00780036 -5.64696e-19)
(0.00409788 0.00737159 5.21808e-21)
(0.005189 0.0078601 5.11633e-19)
(0.00407966 0.00733997 -4.87193e-20)
(0.00495432 0.00771964 0)
(0.00408491 0.00736425 -8.56528e-20)
(0.00474316 0.00759048 4.9248e-19)
(0.00409815 0.00737584 8.75073e-20)
(0.00457588 0.00753012 0)
(0.00428439 0.0074218 1.3973e-19)
(0.00423869 0.00759746 5.8063e-19)
(0.00446843 0.00752863 -5.55487e-19)
(0.00438869 0.00750628 3.71344e-19)
(0.00422742 0.00752401 2.87737e-19)
(0.00643049 0.0110423 -4.97709e-21)
(0.00411763 0.00740117 3.11573e-20)
(0.00645863 0.0110722 0)
(2.04872e-05 4.48389e-06 -1.89791e-19)
(0.0020015 0.00654676 2.28157e-19)
(0.000838187 -5.99396e-05 1.09654e-19)
(0.000852537 1.91705e-06 0)
(7.6113e-07 5.06574e-07 -3.98965e-19)
(-3.249e-05 -8.27775e-05 6.90897e-19)
(2.31953e-05 5.21368e-05 2.08828e-18)
(0.000838109 0.000186659 -9.00345e-20)
(0.000801567 8.30541e-06 7.06123e-19)
(2.09265e-07 1.2587e-08 3.09873e-19)
(1.34923e-05 -2.82883e-05 -1.84494e-18)
(0.000763657 2.6654e-05 1.63092e-19)
(0.000872902 0.000125416 -3.07867e-20)
(0.000801032 -7.15039e-06 1.48076e-19)
(0.000433098 0.000679035 0)
(7.78549e-06 -0.00013365 1.15096e-18)
(0.000874426 2.97674e-07 1.52471e-19)
(1.79986e-05 2.11273e-05 0)
(0.000119727 0.000553812 -6.31075e-19)
(0.000613953 0.000584847 1.31753e-18)
(0.000332829 0.000757508 0)
(0.00080213 -1.45565e-05 0)
(0.000801796 3.07544e-06 1.17666e-18)
(1.50739e-05 4.47456e-05 -3.51373e-18)
(1.40479e-05 5.65367e-06 3.73488e-19)
(0.00011652 0.00013727 0)
(3.48398e-05 -3.84862e-05 0)
(5.8932e-05 0.000106517 2.00929e-19)
(0.000942904 0.000190514 3.50297e-19)
(0.000801031 1.4754e-05 -1.3951e-18)
(2.07342e-05 2.96832e-05 0)
(0.000414408 3.21014e-06 -6.04461e-20)
(0.000799843 3.56874e-05 -1.56293e-19)
(0.000850027 4.70893e-05 1.06496e-18)
(0.000253577 0.000542293 6.32036e-19)
(0.000884257 0.000157806 0)
(1.34357e-05 -1.961e-05 5.38411e-19)
(1.42224e-06 -2.42358e-06 -3.19849e-19)
(0.000945581 3.45779e-05 0)
(0.00104763 0.00227031 0)
(0.00090625 2.33891e-06 0)
(0.00100744 0.00020885 4.2701e-19)
(0.000818687 -3.72078e-05 -2.84172e-19)
(0.000942299 0.000112673 -6.84508e-19)
(0.000801187 3.62896e-06 0)
(4.02111e-05 6.33948e-05 -1.71506e-19)
(0.000174737 0.000322793 1.08079e-18)
(0.000800879 1.35154e-05 -2.46076e-23)
(0.00110618 0.000209325 -6.68499e-19)
(0.00108841 0.000129135 0)
(1.88019e-06 3.93664e-06 2.50938e-19)
(1.43489e-05 -1.24949e-05 -1.94244e-19)
(0.000553376 4.71863e-05 6.94767e-21)
(-6.53036e-06 -6.09456e-05 0)
(0.00107553 0.000256974 9.49605e-19)
(0.00502872 0.00974819 -2.82863e-19)
(0.00312151 0.00961675 1.27223e-18)
(1.75048e-05 -9.29344e-05 -1.91251e-19)
(3.75598e-05 -7.06229e-05 1.85875e-18)
(0.00119103 0.000257742 1.67284e-19)
(0.00133136 0.00107594 2.34018e-19)
(0.000810584 3.01387e-06 -7.36294e-19)
(0.000198881 0.000949203 -2.38176e-19)
(0.000819391 0.000946225 -2.18518e-19)
(0.000800342 -2.05226e-06 0)
(8.17576e-05 0.000610696 0)
(9.44178e-05 0.000277039 -3.59354e-23)
(0.000719763 -4.75469e-05 -1.67338e-23)
(0.00082695 6.95123e-05 1.52547e-19)
(0.0026321 0.00206677 -1.2311e-18)
(0.0017606 0.00923797 -1.17175e-19)
(0.000834358 7.0297e-05 4.92139e-19)
(0.00631942 0.00405295 -1.7615e-19)
(0.00672087 0.0115572 -1.36509e-20)
(0.00473409 0.0078438 4.9311e-21)
(0.000805528 1.35843e-05 -2.16554e-18)
(0.00084305 7.86771e-07 7.60271e-24)
(5.46634e-06 -5.44368e-06 -3.47892e-19)
(4.51361e-05 8.3532e-05 -3.49157e-19)
(6.20961e-05 0.000260959 8.74989e-19)
(8.89334e-06 1.37573e-05 4.90233e-19)
(8.97463e-05 0.000223151 3.69646e-19)
(0.000819701 1.53354e-05 0)
(0.00534817 0.00949236 1.94975e-20)
(0.00154675 0.000638542 -2.6114e-20)
(0.000819299 4.01531e-05 3.60043e-19)
(1.65185e-05 -7.27678e-05 0)
(0.00184834 0.000749946 5.4586e-19)
(7.35839e-06 5.90606e-06 -2.70059e-19)
(3.08007e-05 2.52094e-05 9.71478e-20)
(0.00133542 0.0013984 6.36497e-19)
(0.000739263 4.97578e-05 1.83037e-19)
(1.99521e-06 -7.99398e-07 -1.70141e-19)
(0.00206459 0.00156312 -1.05558e-18)
(0.000126734 0.000171831 -8.18499e-19)
(0.00392026 0.00848823 -1.09065e-18)
(3.33179e-06 9.95971e-07 8.81118e-20)
(9.77278e-05 -4.64711e-05 -1.25804e-18)
(3.58597e-05 -5.38419e-05 4.05496e-20)
(0.00153124 0.000988248 0)
(0.00104315 0.000140835 -4.00745e-22)
(0.000454456 0.000846397 -4.0194e-20)
(0.000803392 2.76392e-05 -2.33992e-19)
(8.69222e-05 0.000178183 7.35829e-19)
(2.00517e-05 -5.37178e-05 4.03852e-19)
(1.63029e-05 1.31451e-05 -9.4677e-20)
(2.86429e-05 8.53603e-05 -3.2018e-19)
(0.000214959 -0.000174354 -5.45491e-19)
(0.00325075 0.00346701 2.90314e-21)
)
;

boundaryField
{
    back
    {
        type            empty;
    }
    ingreso
    {
        type            fixedValue;
        value           uniform (0.0008 0 0);
    }
    salida
    {
        type            zeroGradient;
    }
    front
    {
        type            empty;
    }
    defaultFaces
    {
        type            noSlip;
    }
}


// ************************************************************************* //
