/*--------------------------------*- C++ -*----------------------------------*\
  =========                 |
  \\      /  F ield         | OpenFOAM: The Open Source CFD Toolbox
   \\    /   O peration     | Website:  https://openfoam.org
    \\  /    A nd           | Version:  8
     \\/     M anipulation  |
\*---------------------------------------------------------------------------*/
FoamFile
{
    version     2.0;
    format      ascii;
    class       volScalarField;
    location    "9.6";
    object      p;
}
// * * * * * * * * * * * * * * * * * * * * * * * * * * * * * * * * * * * * * //

dimensions      [0 2 -2 0 0 0 0];

internalField   nonuniform List<scalar> 
5101
(
6.84108e-06
7.51395e-06
7.19516e-06
2.4448e-06
7.55329e-06
2.19e-06
1.09143e-06
9.65282e-06
7.98334e-07
2.53193e-06
7.04973e-06
1.88552e-06
5.38861e-07
1.35062e-06
4.81565e-06
4.61453e-06
3.81776e-06
2.72642e-06
5.4091e-06
9.11715e-06
6.0747e-06
2.4952e-06
4.72466e-06
2.97308e-06
5.84314e-06
3.84618e-06
4.97808e-06
5.50976e-06
7.13795e-06
6.88403e-06
5.68643e-06
4.98081e-06
4.6195e-06
9.25168e-06
6.17724e-06
6.41089e-06
6.66306e-06
6.36902e-06
7.36631e-06
9.3222e-06
9.68951e-06
1.16337e-06
5.27374e-06
4.5171e-06
7.2712e-06
4.77805e-06
7.42539e-06
2.80044e-06
6.61269e-06
5.66148e-06
7.23032e-06
6.47528e-06
6.18484e-06
6.73349e-07
9.63014e-06
7.20752e-06
6.5969e-06
9.30037e-06
9.59339e-06
4.10666e-06
9.27387e-07
5.0051e-06
9.70455e-06
6.3555e-06
5.36419e-06
7.65405e-06
1.18053e-06
3.66278e-06
6.0384e-06
9.69744e-06
2.33593e-06
9.02799e-06
9.68317e-06
5.15052e-06
4.45727e-06
9.1627e-06
2.9109e-06
9.20778e-06
9.45841e-06
2.03171e-06
9.69619e-06
1.60337e-06
2.90592e-06
6.13015e-06
9.62646e-06
6.64879e-06
7.58324e-06
2.30508e-06
7.84014e-06
4.3926e-06
9.14151e-06
3.55615e-07
6.50516e-06
6.11885e-06
6.81383e-06
6.89922e-06
9.20093e-06
7.75605e-06
9.63362e-06
7.95993e-06
5.81178e-06
9.48036e-06
1.63443e-06
8.05633e-06
4.73931e-06
9.2103e-06
6.35483e-06
7.84589e-06
9.47967e-06
3.4645e-06
1.56225e-06
1.72058e-06
6.58727e-06
7.54145e-06
3.53323e-06
9.18163e-06
9.23961e-06
3.5117e-06
4.99493e-06
4.31748e-06
1.79359e-06
3.25635e-06
9.10355e-06
8.12017e-06
4.23468e-06
9.70308e-06
5.21175e-06
7.25899e-06
9.69204e-06
2.25397e-06
6.97091e-06
6.68449e-06
7.71081e-06
9.67562e-06
6.83124e-06
6.93599e-06
9.28693e-06
6.57562e-06
7.73515e-07
9.43254e-06
9.1244e-06
8.35506e-06
9.33282e-06
6.37226e-06
3.89754e-06
4.06532e-06
9.49159e-06
6.05057e-06
8.15931e-06
9.30631e-06
6.20447e-06
9.69181e-06
5.4827e-06
3.39461e-06
7.97672e-06
5.88702e-06
2.96354e-06
9.13199e-06
5.88824e-06
6.03948e-06
5.33035e-07
9.21427e-06
3.37374e-06
7.26631e-06
7.94489e-06
7.06202e-06
5.45897e-06
6.71508e-06
2.40436e-06
9.27693e-06
3.40451e-06
5.68853e-06
5.94378e-06
7.39739e-06
7.93806e-06
3.23427e-06
1.95151e-06
9.65919e-06
4.68677e-06
7.20745e-06
7.61939e-06
3.72218e-06
5.65084e-06
8.81526e-06
9.24977e-06
6.71033e-06
9.54916e-06
5.34205e-06
6.22757e-06
6.50666e-06
7.90969e-06
6.17717e-06
9.25302e-06
9.23117e-06
4.02913e-06
6.69828e-06
9.7087e-06
7.91363e-06
1.40045e-06
1.56329e-06
5.14627e-06
7.97195e-06
7.08836e-06
9.17263e-06
9.56512e-06
7.04851e-06
8.33296e-06
3.13238e-06
9.66938e-06
2.10622e-06
7.71191e-06
5.28461e-07
4.24859e-06
9.32517e-06
1.47179e-06
9.25824e-07
7.31521e-06
6.85513e-06
1.71201e-06
3.44367e-06
7.00101e-07
3.23395e-06
8.66944e-06
7.71014e-06
8.25925e-06
9.78649e-06
3.18844e-06
7.79257e-06
2.26026e-06
9.70097e-06
9.10947e-06
8.30034e-06
7.84039e-06
5.91375e-06
8.8413e-06
9.6148e-06
9.69936e-06
3.42438e-06
6.20152e-06
7.62349e-06
2.41238e-06
9.69892e-06
9.70567e-06
6.78851e-06
5.99074e-06
7.51076e-06
6.35101e-06
9.1223e-06
7.29986e-06
6.27517e-06
7.34921e-06
2.00423e-06
1.66292e-06
6.32983e-06
3.49523e-06
4.72491e-06
4.69437e-06
5.69716e-06
3.62108e-06
9.39038e-06
4.53993e-06
4.1892e-06
4.90547e-06
3.29541e-06
3.27084e-06
9.33631e-06
7.03939e-06
2.64276e-06
1.28795e-06
9.19017e-06
4.17296e-06
4.16577e-06
9.00091e-06
4.01966e-06
9.54576e-06
8.88018e-06
9.36705e-06
9.24224e-06
2.5656e-06
2.71801e-06
5.54224e-06
6.13689e-06
4.98883e-06
7.18203e-06
9.13756e-06
5.92649e-06
6.44913e-06
5.76519e-06
7.53666e-06
8.60643e-06
4.06629e-06
8.99221e-06
6.14094e-06
9.36897e-06
4.82942e-06
9.69767e-06
2.58015e-06
6.34068e-06
8.7263e-06
6.57262e-06
9.36225e-06
9.02062e-06
7.14592e-06
4.32854e-07
-9.86913e-08
7.96855e-06
5.78772e-06
9.07589e-06
2.62536e-06
6.98899e-06
3.02729e-06
5.65913e-07
6.62674e-06
6.80029e-06
5.61236e-06
9.69592e-06
3.48565e-06
8.86563e-06
5.91734e-06
9.30802e-06
7.81088e-06
8.54467e-06
9.25886e-06
4.24162e-06
2.16067e-06
7.31827e-06
9.48788e-06
7.5966e-06
8.86051e-06
2.87426e-06
6.85129e-06
1.95477e-06
9.37011e-06
6.88093e-06
2.89687e-06
9.69574e-06
6.67232e-06
7.14898e-06
7.01781e-06
6.89033e-06
7.88051e-06
2.2627e-06
3.32545e-06
6.3681e-07
1.87175e-06
6.45694e-06
6.11792e-06
6.08733e-06
5.43449e-06
9.48146e-06
9.42265e-06
4.78158e-06
5.91745e-06
2.90988e-06
7.349e-07
9.18159e-06
8.28723e-06
2.79613e-06
8.06617e-06
2.60465e-07
9.69467e-06
2.34693e-06
9.61769e-06
7.11664e-06
6.64292e-06
5.77851e-06
8.14793e-06
1.31519e-06
9.24395e-06
7.19112e-06
9.07484e-06
8.81597e-06
7.96551e-06
6.74262e-06
7.62483e-06
7.46419e-06
8.85984e-06
8.43214e-07
4.06861e-06
3.41214e-06
6.74502e-06
5.76095e-06
7.33968e-06
5.74051e-06
2.55029e-06
1.13426e-06
3.78063e-06
3.12584e-06
7.02523e-06
2.24947e-06
6.03332e-06
6.0343e-06
1.41197e-06
2.84537e-06
1.95496e-06
2.56564e-06
2.28572e-06
6.25792e-06
9.59133e-06
3.57652e-06
6.07085e-06
3.56642e-06
6.48174e-06
3.32767e-06
7.43483e-06
5.50418e-06
5.58639e-06
9.23369e-06
5.38511e-06
9.6744e-06
5.72011e-06
6.33139e-06
9.41357e-06
5.56543e-06
6.56247e-06
5.45159e-06
7.7734e-06
5.84038e-06
9.67979e-06
3.30859e-06
3.27708e-06
5.30121e-06
1.90509e-06
-2.18717e-07
6.93893e-06
2.72337e-06
9.68874e-06
3.77498e-06
7.73798e-06
7.16417e-06
4.08258e-06
7.80881e-06
3.12628e-07
8.08464e-06
9.48842e-06
3.27304e-06
9.07425e-06
3.57443e-06
3.54906e-06
5.637e-07
3.53401e-06
3.51106e-06
5.49595e-06
3.71907e-06
3.92912e-06
4.36935e-06
6.03796e-06
6.7769e-06
2.86835e-06
6.45068e-06
7.0589e-06
5.47607e-06
5.44664e-06
5.39954e-06
5.34756e-06
1.0218e-06
9.44112e-06
8.27792e-06
8.60554e-06
2.02732e-06
7.59668e-06
6.82308e-06
7.88613e-06
3.36004e-06
9.5116e-06
5.05607e-06
5.96317e-06
1.63532e-06
6.89389e-06
6.70823e-06
4.41577e-06
4.38718e-06
9.40055e-06
7.47421e-06
6.70669e-06
9.58627e-06
9.66933e-06
9.45083e-06
7.525e-06
5.93543e-06
1.55089e-06
2.18163e-06
9.60127e-06
9.42278e-06
6.94246e-06
7.05697e-06
6.44753e-06
8.46942e-06
4.07353e-06
4.97725e-06
6.23303e-06
9.15846e-06
3.02841e-06
1.71773e-07
5.85021e-06
6.72541e-06
3.86197e-06
4.60777e-06
8.966e-06
2.42577e-06
9.67844e-06
5.46924e-06
7.81734e-06
7.44157e-06
7.39674e-06
2.93515e-06
9.37343e-06
7.43408e-06
3.19677e-06
3.49528e-06
9.23424e-06
2.88371e-06
8.12818e-07
7.13925e-06
1.77863e-06
2.19046e-06
2.61469e-06
1.23237e-06
3.05113e-06
4.62856e-06
4.64337e-06
8.11001e-06
7.08519e-06
4.26324e-06
7.09988e-07
7.50876e-06
7.68377e-06
6.13454e-06
9.61745e-06
9.10181e-06
5.1835e-06
5.60215e-06
2.33447e-06
8.80838e-07
4.672e-06
3.8611e-06
3.86423e-06
9.34343e-06
4.04901e-06
9.58584e-06
1.86177e-06
4.0389e-06
6.73725e-06
1.51424e-06
1.96742e-06
2.41636e-06
2.86252e-06
3.30679e-06
6.99263e-06
6.10917e-06
6.54739e-06
5.69533e-06
5.23306e-06
2.8778e-06
3.30504e-06
5.60343e-06
5.99636e-06
3.4686e-06
3.46127e-06
4.24016e-06
5.47942e-06
8.91051e-06
9.59598e-06
4.71769e-06
8.33919e-06
4.83448e-06
4.57948e-06
9.39521e-06
3.64122e-06
4.4025e-06
5.88285e-06
3.58048e-07
5.56849e-06
6.52854e-06
8.8141e-06
7.30655e-06
2.57e-06
6.12725e-07
9.16835e-06
8.21469e-06
9.5139e-06
7.58996e-06
3.1892e-06
6.97847e-06
4.37905e-06
8.85837e-06
9.64884e-06
7.42863e-06
7.69503e-06
1.12223e-06
3.44317e-06
5.87066e-06
4.85761e-06
4.8915e-06
6.48823e-06
1.83772e-06
4.80682e-06
4.80815e-06
1.58062e-06
9.17566e-06
2.97209e-06
9.262e-06
5.76717e-06
9.29931e-06
2.48777e-06
5.24882e-06
7.20228e-06
5.35741e-06
5.10308e-06
3.29332e-06
3.28939e-06
7.34468e-06
7.43872e-06
9.67129e-06
9.70512e-06
8.19743e-06
9.45399e-06
9.71079e-06
5.99961e-06
7.81571e-06
4.53168e-06
9.70435e-06
6.38193e-06
9.23988e-06
3.44064e-06
7.03804e-06
8.72785e-06
5.85558e-06
8.76515e-06
5.41163e-06
6.95707e-06
6.88818e-06
7.2839e-06
4.47201e-06
7.22164e-06
9.39693e-06
4.34491e-06
4.34363e-06
3.32704e-06
1.50204e-06
2.88891e-06
2.4542e-06
2.01996e-06
1.05709e-06
9.02001e-06
4.17234e-06
4.77602e-06
7.78987e-06
5.32102e-06
3.01084e-06
7.90159e-06
9.65162e-06
5.73774e-06
2.79631e-06
9.69408e-06
6.30286e-06
7.57644e-06
5.32975e-07
7.11294e-06
9.63548e-06
9.3357e-06
2.6411e-06
4.47565e-06
4.48642e-06
4.80118e-06
3.19948e-06
1.37447e-06
5.24814e-06
4.58578e-06
6.11264e-06
8.34756e-06
7.87754e-06
4.82652e-06
5.85076e-06
4.69858e-06
9.41201e-07
2.75782e-06
2.32985e-06
1.91499e-06
5.59609e-06
7.63303e-06
7.31081e-06
6.30102e-06
9.39358e-06
8.60077e-06
2.03336e-06
9.53527e-06
9.7107e-06
5.59901e-06
2.95868e-06
3.89307e-06
4.72013e-06
5.03707e-06
7.16199e-06
2.49652e-06
6.42252e-06
9.70792e-07
7.59506e-06
6.33436e-07
2.21385e-06
7.79403e-06
3.60032e-06
2.22413e-06
9.31178e-06
6.38437e-06
5.1291e-06
8.50866e-07
2.69395e-07
4.95857e-06
2.20974e-06
7.13627e-06
9.70359e-06
7.65126e-06
4.28456e-06
7.19339e-06
8.86728e-06
6.55345e-06
6.62091e-06
8.51693e-07
3.03623e-06
6.06696e-06
4.93176e-06
4.95664e-06
1.46363e-06
5.54914e-06
9.10237e-06
1.00866e-06
3.33253e-06
5.9985e-06
6.63042e-06
1.71876e-06
5.00507e-06
5.03664e-06
5.10732e-06
1.91714e-06
6.06518e-06
7.06921e-06
5.70104e-06
7.22377e-06
5.50042e-06
9.46635e-06
9.11534e-06
4.64931e-06
6.08563e-06
6.50809e-06
1.02661e-06
6.94101e-06
8.48984e-06
6.56223e-06
4.33049e-06
6.66478e-06
9.70538e-06
5.10926e-06
6.52015e-07
4.56991e-06
6.65677e-06
5.63155e-06
5.17302e-06
8.98822e-06
5.06602e-06
6.97033e-06
7.49599e-06
9.36554e-06
4.41142e-06
7.39917e-06
8.74314e-06
6.73103e-06
6.54062e-06
9.1458e-06
7.35121e-06
8.04104e-06
3.27642e-06
7.89529e-06
4.82569e-06
7.05542e-06
3.27564e-06
7.74966e-06
1.24685e-06
9.48166e-06
3.3466e-06
9.17285e-06
5.45942e-07
9.49547e-06
3.62736e-06
5.29602e-06
6.39858e-06
3.73215e-06
9.37522e-06
9.57259e-06
8.46625e-06
8.52866e-06
5.8252e-06
1.05934e-06
5.74799e-06
3.88149e-06
6.14691e-06
6.29529e-06
3.42804e-06
4.56842e-06
5.96604e-06
6.12456e-06
7.78273e-06
5.76793e-06
9.69464e-06
9.40237e-06
8.8091e-07
3.19321e-06
6.14896e-06
6.77303e-06
1.57702e-06
5.15107e-06
5.18338e-06
5.10298e-06
5.07833e-06
1.31525e-06
7.16695e-06
9.70835e-06
9.47877e-06
3.40817e-06
6.67656e-06
9.69168e-06
9.42822e-06
9.6945e-06
8.00595e-06
3.1669e-06
5.75656e-07
5.8244e-07
5.72243e-06
5.22122e-07
5.27217e-07
2.74972e-06
5.79688e-07
6.47745e-06
7.61533e-07
1.42661e-06
6.02223e-06
3.75891e-06
4.96488e-06
1.06561e-06
1.81871e-06
1.7943e-06
1.06393e-06
1.80824e-06
6.64135e-06
4.78905e-06
9.83191e-07
4.96295e-06
3.2972e-06
3.75943e-06
1.69574e-06
5.04811e-06
5.01234e-06
4.34543e-06
4.21833e-06
9.58595e-06
1.22237e-06
1.21446e-06
1.56495e-06
1.37355e-06
1.36273e-06
3.4503e-06
5.10997e-06
7.38349e-06
7.4085e-06
2.48242e-06
5.01897e-06
1.53934e-06
6.88643e-06
9.10062e-07
6.38341e-06
7.12441e-07
7.38975e-06
7.73037e-06
9.24028e-06
9.66164e-06
3.94622e-06
1.29525e-06
7.46876e-06
6.00256e-06
9.29985e-06
6.40789e-06
2.35056e-06
6.82502e-06
5.3737e-06
9.11895e-06
5.64402e-07
8.46197e-06
4.42504e-06
3.79979e-06
8.04492e-06
7.21891e-06
3.26268e-06
4.15875e-06
9.23449e-06
7.06135e-06
2.95425e-06
9.6793e-06
4.10388e-06
4.07661e-06
9.21523e-06
1.96629e-06
1.95699e-06
1.94423e-06
6.44221e-06
8.36495e-06
4.41063e-06
6.88864e-06
2.45794e-06
5.53597e-06
7.54985e-06
6.2275e-06
7.22624e-06
9.65181e-06
8.96293e-06
6.5091e-06
5.66156e-06
7.55346e-06
2.39598e-06
7.41903e-06
1.3408e-06
8.64861e-06
2.56387e-06
7.28649e-06
5.54382e-06
3.01629e-06
1.08572e-06
9.01811e-06
1.99892e-06
9.52176e-06
6.99784e-06
7.77849e-07
7.50962e-06
9.71058e-06
3.01084e-06
2.56557e-06
2.11773e-06
1.66635e-06
5.07373e-06
3.45597e-06
3.45775e-06
5.54953e-06
5.0231e-06
9.69404e-06
9.64658e-06
3.21903e-06
9.05302e-06
5.40751e-06
9.36913e-06
1.69227e-06
1.78262e-06
7.4356e-07
7.47704e-06
3.40859e-06
3.39422e-06
8.43348e-06
7.12411e-06
2.76779e-06
1.19716e-06
1.18648e-06
7.20372e-06
5.74966e-07
5.66135e-07
9.47073e-06
5.53803e-06
6.5329e-06
8.04154e-06
4.79328e-06
1.18431e-06
1.91717e-06
6.36042e-06
1.93785e-06
1.92967e-06
8.34429e-06
9.1412e-06
7.67214e-06
6.37527e-06
7.7274e-06
9.23686e-06
9.36152e-06
3.07526e-06
1.20898e-06
5.47445e-06
7.48816e-07
7.5592e-07
1.52276e-06
1.51226e-06
1.49098e-06
7.4856e-06
7.16726e-06
6.1695e-06
9.28533e-06
2.37117e-06
3.88439e-06
8.08274e-06
9.66785e-06
5.38753e-06
3.92529e-06
7.9153e-08
4.76639e-06
6.7359e-06
9.31732e-06
4.31561e-06
9.70567e-06
7.05769e-06
7.75625e-06
4.90072e-06
9.60885e-06
3.88902e-06
3.51882e-06
4.08677e-06
9.42351e-06
6.20722e-06
2.61255e-06
1.87795e-06
4.52045e-06
4.00775e-06
4.01264e-06
6.83445e-06
6.27717e-06
9.51158e-06
5.37645e-06
8.34907e-07
7.88205e-06
1.65855e-06
8.04009e-06
7.35266e-06
6.28744e-06
9.68505e-06
4.88444e-06
9.70748e-06
2.36539e-06
1.34841e-06
1.33837e-06
3.7948e-06
3.05169e-06
6.27627e-06
4.50365e-06
6.00957e-07
8.19197e-06
6.19968e-06
9.06336e-06
5.04499e-06
6.52609e-06
9.6356e-06
3.9023e-06
3.90026e-06
1.55237e-06
6.5895e-06
9.3884e-06
4.50746e-06
2.48792e-06
1.47077e-06
1.4876e-06
1.49699e-06
8.63905e-06
7.19824e-07
7.3006e-07
3.88189e-06
9.66372e-06
6.83448e-06
8.73785e-06
9.70635e-06
5.71331e-06
6.88175e-06
8.48254e-06
1.1214e-06
7.15058e-07
1.0047e-06
1.29859e-06
2.08612e-06
2.38016e-06
5.93515e-06
2.68443e-06
7.23035e-06
2.11071e-06
2.10182e-06
2.99707e-06
2.09112e-06
5.64669e-06
4.49244e-06
6.93833e-06
4.19388e-06
5.35234e-06
5.89768e-06
6.91845e-06
6.62341e-06
5.31206e-06
6.3234e-06
5.60682e-06
5.27004e-06
3.90232e-06
5.25424e-06
4.04319e-06
4.28807e-06
4.25998e-06
2.40557e-06
2.6889e-06
2.96985e-06
3.25035e-06
3.542e-06
3.86316e-06
2.04692e-06
7.34107e-06
7.1853e-06
7.75877e-06
6.75814e-06
1.76673e-07
1.76913e-07
5.2792e-06
4.64015e-06
4.19321e-06
4.04427e-06
1.27312e-06
5.11903e-06
5.11513e-06
5.16351e-06
5.20127e-06
3.14881e-06
6.17326e-06
6.79121e-06
8.37785e-07
9.45366e-06
1.45973e-06
3.11862e-06
2.0667e-06
9.15393e-06
9.55561e-06
2.08284e-06
8.30179e-06
2.07212e-06
6.96141e-06
3.03203e-06
6.30088e-06
6.91858e-06
1.43092e-06
5.30084e-06
5.33146e-06
5.2532e-06
5.2207e-06
1.16584e-06
7.67295e-06
6.84282e-06
1.24806e-06
9.2926e-06
5.94128e-06
9.20606e-06
8.18238e-06
2.36535e-07
8.93275e-06
9.69461e-06
6.9936e-06
1.72387e-06
5.40613e-06
3.73912e-06
9.25703e-06
7.33853e-06
4.67017e-06
8.55157e-06
4.98416e-06
9.40636e-06
9.68193e-06
9.21657e-06
8.38279e-06
7.549e-06
1.19116e-06
6.53603e-06
2.24653e-06
7.11259e-06
4.80962e-06
7.68694e-06
9.27633e-06
9.15372e-06
9.19239e-06
7.68055e-06
9.47667e-06
1.49008e-06
2.02744e-06
9.4647e-06
7.6555e-06
6.81565e-06
9.63442e-06
9.46207e-06
9.53001e-06
1.77054e-06
9.14882e-06
8.91541e-06
5.83711e-06
6.91908e-06
6.66067e-06
3.5612e-06
3.77064e-06
4.21677e-06
2.70567e-06
6.59964e-06
7.20097e-06
5.59414e-06
5.62081e-06
5.54832e-06
8.7664e-07
3.26704e-06
3.92316e-06
6.88904e-06
2.39804e-06
5.88749e-06
5.90051e-06
2.98478e-06
3.63743e-06
6.18291e-06
2.10118e-06
2.70456e-06
1.80807e-06
2.42481e-06
2.14449e-06
1.27672e-06
4.56756e-06
4.53804e-06
9.8853e-07
8.03735e-06
4.01708e-06
7.74056e-06
9.22511e-06
2.6591e-06
9.2454e-06
9.65099e-06
1.68542e-06
9.68587e-06
9.16858e-06
9.30143e-06
6.76178e-06
1.43855e-06
9.69084e-06
9.69399e-06
6.83586e-06
6.99297e-06
9.27567e-06
9.71217e-06
5.12144e-06
3.42267e-06
9.6724e-06
9.54082e-06
6.46061e-06
8.37685e-07
9.28147e-06
3.43086e-06
2.99375e-06
2.55124e-06
2.10179e-06
9.66281e-06
1.64504e-06
2.21737e-06
7.86801e-06
8.2776e-06
9.6872e-06
9.62629e-06
4.18132e-06
4.40808e-06
9.57098e-06
4.2639e-06
4.23612e-06
7.54679e-06
4.98682e-06
6.08332e-06
9.68527e-06
9.0124e-06
3.87173e-07
5.70364e-06
1.33737e-06
6.24106e-06
3.71278e-06
9.3405e-06
6.93717e-06
1.77189e-06
4.23671e-06
5.76213e-06
6.64288e-06
1.95382e-06
6.98308e-06
9.69696e-06
7.14185e-06
2.51856e-06
9.68693e-06
9.68939e-06
6.94427e-07
9.71068e-06
5.49827e-07
9.19797e-06
4.6534e-06
7.76621e-06
3.23259e-06
9.28019e-06
2.10884e-07
3.97175e-07
6.50341e-06
5.06742e-07
3.71847e-07
4.60124e-06
7.12749e-06
2.84353e-06
4.16103e-07
4.6556e-06
9.69844e-06
1.93094e-06
3.13417e-06
9.65829e-06
4.56529e-07
9.23237e-06
2.25482e-06
6.69934e-06
3.11954e-06
5.54204e-06
4.6908e-06
5.95352e-06
8.58488e-06
9.70546e-06
5.8736e-06
8.55115e-06
6.87178e-06
3.2138e-06
9.24018e-06
9.39054e-06
1.41232e-06
7.34305e-06
9.71125e-06
9.67986e-06
6.66156e-06
6.16566e-06
9.21126e-06
3.92295e-06
3.94887e-06
9.55652e-06
3.22638e-07
7.78078e-06
6.96354e-06
2.26122e-06
4.55606e-06
8.04559e-06
2.88012e-06
5.43902e-06
7.04689e-06
9.70448e-06
3.62946e-07
6.39352e-06
5.86003e-06
7.77024e-06
5.20797e-06
5.78404e-06
3.63795e-06
8.76802e-06
9.68246e-06
6.76356e-06
7.79071e-06
9.70102e-06
4.4348e-06
4.40571e-06
2.26284e-06
1.93946e-06
6.04259e-06
3.75732e-06
5.42093e-06
3.89051e-06
3.26667e-06
6.55201e-06
9.02087e-06
7.32411e-06
2.98935e-06
9.70451e-06
4.43744e-06
5.87839e-06
9.08455e-06
4.96204e-06
6.93545e-06
5.26393e-06
9.64492e-06
9.5159e-06
8.66049e-06
9.26179e-06
6.07403e-06
9.52503e-06
6.59961e-06
9.31186e-06
9.18145e-06
9.27565e-06
2.43163e-06
3.78456e-06
3.92694e-06
7.64301e-06
8.42373e-06
5.33136e-06
9.38734e-06
9.70281e-06
7.44962e-06
6.45301e-06
6.04023e-06
4.57914e-06
8.08068e-07
5.19129e-06
9.25837e-06
9.70754e-06
6.7029e-06
8.42363e-06
3.96484e-06
9.24182e-06
6.59744e-06
3.32234e-06
5.43634e-06
3.11249e-06
9.70735e-06
3.90967e-06
9.71489e-07
4.18266e-06
5.86514e-06
6.40416e-06
5.26043e-06
4.19109e-06
9.07064e-06
9.69632e-06
9.06208e-06
6.68488e-06
4.66727e-06
7.47517e-06
6.51546e-06
8.12072e-06
9.69486e-06
7.56754e-06
6.20548e-06
9.5204e-06
9.318e-06
6.22353e-06
7.07249e-06
6.08487e-06
7.38911e-06
5.40663e-06
2.26961e-06
8.88205e-07
8.74835e-07
1.6182e-06
1.64437e-06
1.64033e-06
4.10822e-06
4.13548e-06
4.44507e-06
4.45643e-06
5.86786e-06
6.27784e-06
7.88692e-06
8.01908e-07
1.14292e-06
-6.10964e-08
9.42466e-06
4.39351e-06
7.7908e-08
9.32695e-06
9.19071e-06
7.24373e-06
3.77498e-06
3.7472e-06
4.59068e-06
8.4433e-06
2.82064e-06
4.63049e-06
6.25624e-06
7.51887e-06
4.29353e-06
6.90767e-06
2.65014e-06
9.32653e-06
7.09041e-06
9.68613e-06
9.68693e-06
6.66284e-07
9.25233e-06
4.15229e-06
4.15969e-06
9.70693e-06
5.54943e-06
1.51077e-06
9.28326e-06
6.99311e-07
3.8025e-06
6.39796e-06
6.10857e-06
7.20156e-06
2.35062e-06
4.37444e-07
1.37435e-06
7.20487e-06
6.2725e-06
9.41203e-06
9.67929e-06
5.61638e-06
6.75294e-06
9.25472e-07
4.48002e-06
3.95135e-06
7.54577e-06
9.5054e-06
9.66036e-06
8.06468e-06
4.94226e-07
8.27208e-06
3.3429e-06
3.46415e-06
5.68051e-06
4.96991e-06
3.5724e-06
5.24892e-06
7.40198e-06
7.97802e-06
3.71029e-06
3.73523e-06
3.57531e-06
3.13912e-06
2.70028e-06
2.25257e-06
9.29358e-06
1.79821e-06
6.64093e-06
4.02347e-06
9.70747e-06
9.69131e-06
9.13935e-06
7.02465e-06
7.67973e-06
5.90815e-06
7.89605e-06
6.27836e-06
8.57475e-06
5.12915e-06
9.608e-06
5.67447e-06
4.01679e-06
9.6407e-06
5.96111e-06
7.25706e-06
1.87668e-06
1.35508e-06
2.31013e-06
2.74336e-06
4.49355e-06
3.18192e-06
4.49932e-06
9.10777e-07
9.26732e-06
9.36783e-06
8.18205e-06
8.02499e-06
4.07942e-07
4.12576e-07
4.85638e-06
3.69148e-06
6.38756e-06
9.15295e-06
9.08168e-06
9.70879e-06
9.7015e-06
9.52989e-06
7.95929e-06
9.27623e-06
9.19442e-06
1.81153e-06
9.67549e-06
5.13531e-06
6.69668e-06
8.27097e-06
9.69376e-06
8.25654e-06
2.12847e-06
7.31405e-06
2.83005e-06
9.30699e-06
7.753e-06
7.3451e-06
9.22719e-06
9.2959e-06
5.69376e-07
9.52696e-06
8.59127e-07
1.15351e-06
2.54657e-06
2.82886e-06
2.23125e-06
3.1086e-06
6.77367e-06
5.75368e-06
5.7931e-06
2.52955e-06
4.04639e-06
3.39276e-06
5.46062e-06
5.50263e-06
6.47492e-06
7.08651e-06
2.84028e-06
4.34253e-06
3.69721e-06
9.43118e-06
2.04367e-06
6.8893e-06
8.79415e-06
9.31206e-06
4.10857e-06
7.95755e-06
3.09257e-06
5.80037e-06
9.61279e-06
2.07836e-06
9.26039e-06
9.70843e-06
7.99177e-06
5.73865e-06
9.34389e-06
6.25518e-06
1.04333e-06
8.86388e-06
7.48102e-06
7.54403e-06
4.7531e-06
6.84558e-06
2.24946e-06
3.012e-06
7.62043e-06
9.65913e-06
3.61892e-06
9.58082e-06
3.59511e-06
9.7074e-06
8.92878e-06
9.70672e-06
5.76733e-06
9.31788e-06
4.64758e-06
6.64991e-07
2.28914e-06
9.08489e-06
4.26193e-06
9.69198e-06
3.88908e-07
1.00164e-06
7.02636e-06
7.78857e-06
6.5495e-06
9.33398e-06
6.9262e-06
4.83764e-06
3.70239e-06
4.15298e-07
3.70273e-06
1.7957e-06
5.56903e-06
4.04771e-06
3.61467e-06
6.18558e-06
1.40969e-06
4.04286e-06
3.74017e-06
4.5814e-06
4.55072e-06
2.12234e-06
4.22995e-06
6.60825e-06
1.84296e-06
1.70184e-06
8.72402e-06
4.23504e-06
9.44111e-06
8.95089e-06
5.57798e-07
5.95281e-07
5.5286e-06
9.29597e-06
2.24021e-06
2.20668e-06
1.2328e-06
4.93385e-06
4.48326e-06
9.30237e-06
9.27459e-06
8.72585e-06
7.83419e-06
5.81911e-06
9.70058e-06
9.65765e-06
8.19046e-06
5.50873e-06
5.50158e-06
9.70959e-06
4.10418e-06
3.50569e-06
7.44434e-06
9.61973e-06
8.43239e-06
8.43915e-06
1.26216e-06
2.22958e-06
3.72754e-06
7.71255e-06
9.50441e-06
2.57021e-06
1.06933e-06
2.01027e-06
9.60937e-06
9.7126e-06
9.60385e-06
7.36006e-06
9.42854e-06
7.87577e-06
2.48856e-06
9.68267e-06
9.15953e-06
3.55686e-06
8.17807e-06
7.16775e-06
6.09549e-06
3.32388e-06
9.61391e-06
9.66734e-06
9.63101e-06
9.70931e-06
7.79086e-06
8.35225e-06
9.12024e-06
5.07112e-06
3.46027e-06
1.6662e-06
9.54825e-06
2.11751e-06
2.56123e-06
3.00724e-06
3.46182e-06
9.17504e-06
9.38559e-06
5.73606e-06
9.69459e-06
1.39407e-06
9.31798e-06
1.92121e-06
7.14414e-06
4.71279e-06
9.47416e-06
3.58988e-06
6.75477e-07
6.86144e-07
8.26333e-06
7.30827e-06
1.37815e-06
1.36348e-06
9.26292e-06
2.09966e-06
3.8608e-06
9.61163e-06
2.09548e-06
6.28009e-06
6.70822e-06
7.91344e-06
9.16506e-06
2.10192e-06
9.64718e-06
5.24881e-06
5.36942e-06
3.15757e-06
2.39051e-06
5.9225e-06
3.67789e-06
9.67608e-06
3.99947e-06
3.97262e-06
6.74488e-06
7.13812e-06
9.70497e-06
1.35849e-06
7.92355e-06
4.13085e-07
4.14685e-07
7.43249e-06
2.16186e-06
9.69798e-06
1.84736e-06
7.19128e-07
1.19546e-06
9.20291e-06
9.68694e-06
8.5716e-06
8.00145e-07
7.92831e-07
1.5179e-06
1.50294e-06
1.53457e-06
4.70599e-06
3.19368e-06
3.20023e-06
9.227e-06
8.77235e-06
9.42185e-06
2.80809e-06
9.62898e-06
1.23023e-06
1.22236e-06
6.00289e-06
9.25364e-06
3.27161e-06
9.6967e-06
9.55401e-06
9.33706e-06
8.07238e-06
2.00607e-06
9.69942e-06
2.77853e-06
1.36788e-06
4.55215e-06
1.23789e-06
5.10182e-06
5.11645e-06
1.5493e-06
6.78846e-06
6.17361e-06
3.12771e-06
5.16323e-06
5.19923e-06
8.38501e-07
9.67351e-06
5.93093e-06
7.10754e-06
9.5089e-06
8.77905e-06
1.9477e-06
9.61879e-06
9.40577e-06
7.47006e-06
1.94993e-06
4.94836e-06
3.58405e-06
9.37235e-06
2.62307e-06
8.24008e-06
1.97059e-06
1.81825e-06
2.26551e-06
2.70943e-06
3.15892e-06
3.58745e-06
9.15343e-06
7.52115e-06
7.98767e-06
4.40166e-06
6.63133e-06
2.60204e-06
8.96289e-06
6.38605e-06
8.62171e-06
9.28341e-06
9.66833e-06
8.65894e-06
5.96336e-06
9.48204e-06
9.64766e-06
8.39752e-06
9.23384e-06
5.3886e-06
3.15929e-06
7.63357e-06
9.27556e-06
9.61026e-06
4.59885e-06
4.42711e-06
6.40225e-06
9.3696e-06
9.15877e-06
6.10883e-06
5.98562e-06
7.63517e-06
8.47815e-06
5.82348e-06
5.20423e-06
9.70767e-06
9.25063e-06
6.31167e-06
5.51601e-06
4.07692e-06
4.10427e-06
9.33279e-06
1.77732e-06
8.38168e-06
3.15762e-06
2.71373e-06
2.26662e-06
1.81685e-06
3.46064e-06
9.5983e-06
1.61257e-06
5.86495e-06
9.69683e-06
9.45559e-06
1.09045e-06
5.85608e-06
6.13331e-07
8.08857e-06
4.79976e-06
8.4842e-06
3.69559e-07
3.63286e-07
9.77707e-06
3.97183e-06
9.67123e-06
9.60989e-06
8.94725e-06
3.42843e-06
5.90308e-07
6.62147e-07
9.28462e-06
9.70737e-06
9.68145e-06
7.00572e-06
4.56204e-06
9.624e-06
9.56972e-07
7.65242e-06
9.68507e-06
4.93568e-06
3.6039e-06
7.2637e-06
3.60287e-06
9.1856e-06
9.67191e-06
7.68789e-06
5.97257e-06
9.2143e-06
8.21101e-06
9.3105e-06
9.7093e-06
9.24528e-06
4.6355e-07
9.49321e-06
8.87384e-06
9.70782e-06
9.372e-06
7.50891e-06
8.41332e-06
9.67892e-06
9.66627e-06
9.72181e-06
4.34836e-06
9.7182e-06
9.53415e-06
5.35364e-06
9.49175e-06
7.93261e-06
5.67703e-06
1.58613e-06
8.28041e-06
8.43506e-06
6.35397e-06
1.73321e-06
6.80264e-06
4.49627e-06
8.93025e-06
6.30274e-07
9.22329e-06
9.46799e-06
6.42693e-08
9.70598e-06
9.12263e-07
9.0813e-07
1.64479e-06
1.65992e-06
1.6716e-06
8.18602e-06
9.16319e-06
1.36165e-06
7.63899e-07
6.42911e-06
4.64046e-06
4.63884e-06
3.03399e-06
1.20001e-06
2.60187e-06
2.16814e-06
1.70833e-06
2.35801e-07
6.17793e-06
4.94278e-06
4.9289e-06
1.40534e-06
9.71361e-07
3.2924e-06
6.01683e-06
6.60801e-06
1.69983e-06
4.97994e-06
5.01461e-06
7.50978e-06
5.61879e-06
8.9104e-06
7.5451e-06
9.67599e-06
9.58909e-06
9.64844e-06
2.54713e-07
4.1756e-06
9.68672e-06
9.63141e-06
9.44487e-06
3.9568e-06
3.93013e-06
8.63831e-06
3.84295e-07
7.75596e-06
8.03653e-06
5.97212e-06
4.84458e-06
4.87412e-06
9.04449e-07
2.74393e-06
2.31418e-06
1.86214e-06
9.53418e-06
7.97264e-06
4.48462e-06
4.50497e-06
3.1835e-06
1.36492e-06
8.21807e-06
9.60013e-06
2.67954e-06
4.34337e-06
9.21444e-06
9.64867e-06
3.37171e-06
7.59446e-06
1.29855e-06
9.59815e-06
9.73087e-06
9.20074e-06
9.54343e-06
1.2669e-07
9.70828e-06
9.34922e-06
2.22264e-06
7.45451e-06
5.2729e-06
3.26935e-06
1.18804e-06
1.1186e-06
9.70586e-06
1.90698e-06
1.93302e-06
9.70106e-06
9.70328e-06
2.51053e-06
2.21597e-06
9.75341e-07
9.59626e-06
5.75905e-06
9.53863e-06
3.85594e-06
1.56181e-06
9.26009e-06
1.95041e-06
2.40229e-06
2.84783e-06
3.28413e-06
9.66702e-06
9.61991e-06
9.70108e-06
5.13904e-06
3.09846e-06
8.00089e-06
8.20697e-06
8.87907e-06
9.48524e-06
9.01563e-06
1.91683e-06
9.69006e-06
7.76463e-06
9.19618e-06
4.09169e-07
4.06562e-07
8.78869e-06
9.69726e-06
9.28334e-06
5.18375e-06
3.10489e-06
6.89046e-06
7.9296e-06
5.59557e-06
3.25475e-06
9.51132e-06
8.04607e-06
9.35526e-06
9.59668e-06
2.15911e-06
6.13124e-06
2.06689e-06
6.55724e-07
4.26267e-06
9.05485e-06
1.49168e-06
2.07323e-06
9.23716e-07
9.38719e-07
5.68322e-06
9.70547e-06
1.67054e-06
1.65304e-06
1.63422e-06
6.0163e-06
9.29742e-06
9.69949e-06
9.05861e-06
9.31191e-06
9.69043e-06
5.29992e-06
5.2646e-06
6.88077e-06
5.19002e-06
9.70426e-06
6.33828e-06
1.28197e-06
5.2173e-06
3.1922e-06
1.4674e-06
6.26553e-06
9.68938e-06
9.54837e-06
1.46111e-06
1.47712e-06
4.94068e-06
6.98939e-06
7.43967e-06
9.70139e-06
9.50441e-06
1.32247e-06
1.32094e-06
7.47817e-06
9.25322e-06
2.04643e-06
4.36426e-06
9.3859e-06
2.24728e-06
9.21089e-06
1.44048e-06
6.18927e-06
9.60249e-06
9.09216e-06
7.47335e-07
1.15884e-06
3.54133e-06
6.63707e-06
7.09398e-06
4.89222e-06
5.55374e-06
4.54124e-06
8.33709e-06
9.38646e-06
7.69508e-06
3.51938e-06
1.75049e-06
2.69601e-06
3.14013e-06
5.72142e-06
9.69967e-06
9.65926e-06
6.55293e-07
9.67666e-06
3.68219e-06
2.39769e-06
1.30254e-06
3.88426e-06
7.55038e-06
4.9977e-06
1.94203e-06
4.3338e-06
3.97038e-06
9.30626e-06
9.65641e-06
3.07928e-06
7.4902e-06
8.56143e-06
2.8452e-06
3.28229e-06
4.85151e-06
3.44346e-07
9.28234e-06
2.07421e-06
2.39075e-06
4.92093e-07
2.35648e-06
2.8232e-06
6.47249e-06
7.08712e-06
5.45292e-06
5.50017e-06
5.42059e-06
5.40503e-06
9.62818e-07
9.64015e-06
1.74731e-06
1.78568e-06
1.03707e-06
9.79144e-07
3.20297e-06
1.60732e-06
1.67106e-06
6.35427e-06
2.85518e-06
4.09259e-07
9.48874e-06
9.39942e-07
3.39778e-06
4.04332e-06
2.5193e-06
6.777e-06
5.80001e-06
5.74908e-06
7.38187e-06
1.80172e-06
2.05487e-06
1.07731e-06
2.47675e-06
1.12852e-06
9.0796e-06
3.11892e-06
3.75685e-06
6.07489e-06
2.2323e-06
6.04353e-06
7.07326e-06
2.83588e-06
1.94499e-06
2.54805e-06
2.25812e-06
1.42186e-06
7.35508e-06
1.13981e-06
2.90281e-06
4.73795e-06
4.40934e-06
4.38095e-06
1.97215e-06
1.07851e-06
1.08741e-06
9.68979e-06
1.02953e-06
1.04301e-06
8.17479e-07
3.65526e-06
9.5446e-06
3.64623e-06
1.78616e-06
1.42429e-06
9.22025e-06
1.79116e-06
1.82146e-06
1.76848e-06
8.96418e-06
1.80195e-06
1.79493e-06
8.74708e-07
8.53245e-06
9.30869e-06
3.44912e-06
9.72376e-06
7.46206e-06
4.51042e-06
2.85441e-06
3.28684e-06
8.75879e-07
4.18662e-06
5.40536e-06
7.36733e-06
1.39041e-06
1.3263e-06
8.57031e-06
1.25001e-07
4.81468e-07
7.64569e-06
4.19922e-06
4.20593e-06
7.63848e-06
9.69489e-06
1.58493e-06
5.23458e-06
5.27017e-06
3.18757e-06
5.54265e-06
7.58128e-06
1.25122e-06
5.18778e-06
5.05111e-06
9.70358e-06
7.21872e-07
7.6626e-06
4.54804e-06
5.78913e-06
6.14108e-06
6.85283e-06
3.99684e-06
4.00184e-06
1.25683e-06
7.62007e-07
2.51224e-06
6.98974e-06
4.61133e-06
5.73038e-06
6.52787e-06
1.37213e-06
1.65388e-06
1.48695e-06
9.69974e-06
2.38608e-06
3.29456e-06
9.61516e-06
2.61963e-06
2.19124e-06
1.8005e-06
1.96385e-06
3.0521e-06
3.91418e-06
1.21781e-06
7.50901e-06
6.83019e-06
5.38197e-06
1.50695e-06
1.5672e-06
8.68589e-06
3.58438e-06
5.72361e-06
3.46811e-06
6.32257e-06
1.65942e-06
1.97583e-06
4.69413e-06
4.72467e-06
4.45652e-06
1.07858e-06
1.80836e-06
6.07706e-06
5.94414e-06
2.36634e-06
2.26813e-06
4.51386e-06
2.48835e-06
6.76688e-06
7.08957e-06
6.09553e-06
9.69923e-06
5.0608e-06
6.37809e-06
9.07071e-06
1.13216e-06
8.93779e-07
4.6313e-06
1.78371e-06
3.74555e-06
2.61883e-06
3.64376e-06
7.2394e-06
8.08875e-07
2.5593e-06
3.97569e-06
3.94718e-06
5.35401e-06
5.36296e-06
6.95248e-06
7.43796e-06
3.95458e-06
3.92814e-06
4.33493e-06
4.48736e-06
2.26767e-06
2.70625e-06
3.14914e-06
3.61453e-06
3.27382e-06
6.46357e-06
5.73502e-06
4.92725e-06
3.57234e-06
5.10689e-06
1.54311e-06
9.46014e-07
5.30618e-06
5.7447e-07
9.18752e-06
7.12731e-06
9.69e-06
3.52925e-06
2.13895e-06
6.66593e-06
2.24409e-06
6.18466e-06
5.18186e-06
3.40556e-06
1.66241e-06
6.21941e-06
2.55724e-06
2.23599e-06
9.51923e-07
2.78887e-06
6.61477e-06
7.29631e-06
3.34642e-06
5.40203e-06
4.16915e-07
4.22239e-07
5.57301e-06
8.46432e-06
3.87111e-06
4.34667e-06
4.3368e-06
3.96596e-06
3.9388e-06
3.77899e-06
4.79456e-06
2.21414e-06
3.97337e-06
2.07615e-06
7.54321e-07
1.36322e-06
1.97289e-06
2.70148e-06
2.99106e-06
6.0359e-06
6.23246e-06
4.17217e-06
4.04352e-06
5.88296e-06
7.21104e-06
5.60265e-06
5.61957e-06
3.89554e-06
4.52462e-06
4.49629e-06
1.01305e-06
5.5863e-06
1.88119e-06
2.12152e-06
2.09704e-06
2.41245e-06
8.88138e-07
2.08957e-06
7.39762e-06
5.81183e-06
5.7481e-06
6.92825e-06
6.09696e-06
2.2661e-06
1.95349e-06
5.97116e-06
2.4132e-06
1.81753e-06
3.64806e-06
1.48338e-06
8.47292e-06
3.44744e-06
5.25535e-06
3.00389e-06
3.44779e-06
4.21916e-06
4.18676e-06
4.80733e-06
3.13464e-06
4.04087e-06
4.82782e-06