/*--------------------------------*- C++ -*----------------------------------*\
  =========                 |
  \\      /  F ield         | OpenFOAM: The Open Source CFD Toolbox
   \\    /   O peration     | Website:  https://openfoam.org
    \\  /    A nd           | Version:  8
     \\/     M anipulation  |
\*---------------------------------------------------------------------------*/
FoamFile
{
    version     2.0;
    format      ascii;
    class       volScalarField;
    location    "9.6";
    object      p;
}
// * * * * * * * * * * * * * * * * * * * * * * * * * * * * * * * * * * * * * //

dimensions      [0 2 -2 0 0 0 0];

internalField   nonuniform List<scalar> 
5490
(
4.42099e-06
4.73474e-06
3.68886e-06
4.50191e-06
6.3741e-07
8.65265e-06
9.01843e-06
8.99188e-06
3.09157e-06
8.95496e-06
3.45115e-06
3.49497e-06
2.6623e-06
3.2278e-06
2.99826e-06
8.95417e-06
9.02113e-06
8.75465e-06
4.59207e-06
3.18411e-06
2.62521e-06
9.01952e-06
8.69036e-06
9.01966e-06
2.51111e-06
2.42642e-06
2.74472e-06
4.33545e-06
8.47566e-06
1.50373e-06
4.17022e-06
9.00749e-06
6.57412e-06
5.45342e-06
1.85239e-06
4.31168e-06
8.37329e-06
4.59218e-06
9.89907e-07
2.23712e-06
4.44042e-06
8.42574e-06
3.60141e-06
8.43718e-06
8.77313e-06
5.69587e-06
1.41368e-06
1.08066e-06
4.57937e-06
7.52993e-06
8.93338e-06
1.59377e-06
1.9443e-06
8.01998e-07
2.58102e-06
5.42578e-06
7.87408e-06
8.97049e-06
3.08252e-06
1.58742e-06
8.45523e-06
2.62838e-07
5.37299e-06
9.0016e-06
9.02006e-06
8.86108e-06
8.94345e-06
8.31634e-06
1.33289e-06
8.81543e-06
9.80016e-07
2.19708e-06
8.97872e-06
9.00086e-06
8.9311e-06
1.98168e-06
8.63931e-06
2.60502e-07
4.8817e-06
3.69399e-06
8.42287e-06
7.68716e-06
8.60888e-06
4.68545e-06
6.66736e-07
5.24895e-06
8.7984e-06
8.72956e-06
2.03299e-06
8.34928e-06
8.95387e-06
8.61725e-06
8.55996e-07
8.89301e-06
4.41983e-06
8.96367e-06
3.24576e-06
8.56081e-06
8.2722e-06
2.67135e-06
3.34489e-06
2.06416e-06
5.87017e-06
8.97028e-06
5.56552e-06
5.33093e-06
2.03453e-06
8.28835e-06
9.00711e-06
9.00954e-06
8.97322e-06
8.99921e-06
8.82922e-06
5.71202e-06
3.8529e-06
8.38209e-06
4.81786e-06
8.8156e-06
8.73812e-06
1.6647e-06
5.6604e-06
6.53098e-06
8.54005e-06
4.77863e-06
8.93137e-06
8.93208e-06
3.16965e-06
4.58224e-07
8.97451e-06
3.04254e-06
8.79105e-06
8.38582e-06
2.59558e-06
3.7384e-06
1.16687e-06
9.01568e-06
9.01602e-06
8.98044e-06
8.93137e-06
5.68265e-06
8.97073e-06
9.03294e-06
2.27905e-06
8.34015e-06
8.99287e-06
8.89129e-06
-2.30773e-08
8.90332e-06
1.80249e-06
8.52111e-06
9.01125e-06
9.01033e-06
3.43127e-06
9.03715e-06
8.29376e-06
9.02319e-06
9.01009e-06
8.81841e-06
8.88055e-06
3.09399e-06
4.01652e-06
8.07651e-06
8.3137e-06
8.90123e-06
8.99858e-06
8.81333e-06
9.00195e-06
2.18969e-07
8.5297e-06
1.377e-07
8.97682e-06
5.24883e-07
2.50012e-06
9.00843e-06
3.32999e-06
1.36766e-06
1.79029e-06
9.0343e-06
2.3424e-06
2.92926e-06
8.7829e-06
9.00879e-06
4.67716e-06
4.50214e-06
9.02335e-06
1.2249e-06
1.76812e-06
7.41826e-07
9.00691e-06
8.9494e-06
8.9438e-06
1.16847e-06
4.73192e-06
9.00676e-06
8.949e-06
3.93953e-06
5.4439e-06
9.02605e-06
8.58112e-06
1.68107e-06
8.89343e-06
5.56536e-06
9.02691e-06
8.97253e-06
7.44981e-06
9.17036e-06
9.00278e-06
8.87419e-06
3.75335e-06
8.39662e-06
8.90529e-06
9.02064e-06
4.253e-06
4.08704e-06
3.79663e-06
5.76898e-06
3.92591e-06
3.52804e-06
9.07888e-06
9.02401e-06
8.72483e-06
9.00442e-06
7.85971e-06
2.50362e-06
2.4598e-06
6.09736e-07
1.96976e-06
1.93198e-06
8.91709e-07
9.02779e-06
8.52021e-07
8.37336e-06
9.00858e-06
8.95404e-06
5.54302e-06
8.24681e-06
8.90841e-06
9.00882e-06
9.03202e-06
2.82816e-06
9.02703e-06
4.0678e-06
1.65663e-07
1.67285e-06
9.03406e-06
8.73702e-06
8.47885e-06
6.44281e-06
8.37682e-06
9.00664e-06
9.02547e-06
7.0716e-06
8.83146e-06
8.3703e-06
1.56755e-06
5.62544e-06
6.56978e-06
2.07312e-06
3.2722e-06
8.92369e-06
8.21026e-06
4.58264e-06
4.70034e-06
9.03012e-06
9.0042e-06
8.58508e-06
5.59478e-06
8.21006e-06
9.00965e-06
8.9717e-06
9.00075e-06
3.81845e-06
9.00894e-06
8.8184e-06
7.0235e-06
9.00556e-06
8.99519e-06
9.86609e-07
4.29999e-06
5.52397e-06
9.02491e-06
9.00723e-06
9.03037e-06
8.27769e-06
3.40533e-06
8.9809e-06
8.30348e-06
9.00684e-06
8.13486e-06
3.27672e-06
6.35069e-07
8.42236e-06
8.63693e-06
5.70322e-06
2.95311e-06
8.52615e-06
8.88813e-06
9.00601e-06
6.88395e-07
8.5315e-06
4.86271e-06
8.90349e-06
4.50442e-06
8.58093e-06
2.797e-06
9.28426e-07
9.05773e-06
8.95505e-06
5.0908e-06
1.11583e-06
2.35819e-06
8.70883e-06
8.52157e-06
5.37672e-06
3.41127e-06
5.4356e-06
1.42467e-07
8.80594e-06
7.61312e-06
9.03201e-06
8.99357e-06
1.82817e-06
2.9543e-06
8.96802e-06
8.85177e-06
1.00903e-06
5.19876e-07
2.81241e-06
8.78272e-06
4.26853e-06
5.54145e-06
9.00297e-06
9.0059e-06
8.22934e-06
4.06307e-06
1.35785e-06
9.03061e-06
3.19317e-06
9.02992e-06
8.77964e-06
8.90935e-06
8.96777e-06
4.99685e-06
5.55921e-06
3.49172e-06
9.22477e-07
9.35746e-07
9.00861e-06
5.03441e-06
8.14102e-07
9.03691e-06
5.21457e-06
1.86692e-06
1.85011e-06
3.18368e-06
9.00477e-06
3.54527e-06
5.98836e-06
8.89632e-06
4.62788e-06
5.06734e-06
2.75378e-06
8.85629e-06
7.50681e-07
1.12057e-06
4.32975e-07
7.34116e-07
8.98639e-06
8.88728e-06
5.15655e-06
9.68863e-07
1.78843e-06
1.74799e-06
9.00297e-06
7.82817e-06
9.00293e-06
9.03098e-06
2.46996e-06
8.97269e-06
8.5638e-06
9.77456e-07
1.94249e-06
5.41092e-06
5.70338e-06
6.88768e-06
2.80642e-06
3.42321e-06
2.23597e-06
2.53028e-06
9.00642e-06
8.36042e-06
2.9057e-06
8.98233e-06
4.91865e-07
2.37843e-06
2.37404e-06
2.36797e-06
9.00489e-06
1.17298e-06
1.78668e-06
8.82862e-06
7.90492e-06
6.63312e-07
8.6814e-06
2.73651e-06
9.01079e-06
9.03224e-06
9.00501e-06
8.99435e-06
1.60383e-06
5.50526e-06
9.03017e-06
4.63641e-06
7.53724e-06
3.51608e-06
2.3751e-06
1.93552e-06
9.02605e-06
9.02963e-06
5.15469e-06
1.70674e-06
4.83319e-06
5.93557e-06
3.281e-06
8.3384e-06
8.80664e-06
3.13863e-06
9.00172e-06
8.76094e-07
9.01915e-06
3.42738e-06
3.42339e-06
3.41653e-06
2.79316e-07
8.79437e-06
9.00753e-06
8.91661e-06
8.29486e-06
2.55502e-06
1.07771e-06
5.71036e-06
4.1241e-06
9.22775e-07
8.67851e-06
4.53878e-06
8.95984e-06
5.61727e-06
8.99686e-06
9.016e-06
8.52552e-06
4.03464e-06
8.7769e-06
3.42552e-06
2.96625e-06
4.03369e-06
4.0334e-06
9.00353e-06
9.00696e-06
4.88587e-06
4.47157e-06
4.64642e-06
9.47777e-07
5.53633e-06
6.24415e-06
8.79956e-06
5.75544e-06
4.11769e-06
8.7516e-06
5.12459e-06
7.1908e-06
5.83403e-06
4.02903e-06
3.59269e-06
3.36079e-06
5.98604e-08
8.42817e-06
8.56805e-06
5.69963e-06
6.04033e-06
8.99512e-06
8.99938e-06
5.74128e-06
4.99252e-06
9.02045e-08
4.20424e-06
9.45652e-07
8.91762e-06
5.34391e-06
3.88101e-06
1.39983e-07
2.98204e-06
4.92267e-07
4.91058e-06
8.96769e-06
8.46263e-06
8.99533e-06
8.96921e-06
9.01082e-06
1.12868e-06
7.65302e-07
1.06132e-06
1.06106e-06
9.0135e-06
9.01942e-06
8.84804e-06
4.71737e-06
2.12603e-06
5.25384e-06
8.15916e-06
8.56022e-06
8.79882e-06
8.40173e-06
8.9955e-06
8.98333e-06
8.99494e-06
9.01217e-06
8.48783e-06
9.21626e-07
4.99877e-06
8.78523e-06
8.65801e-06
9.0077e-06
8.27663e-06
8.34265e-06
9.00967e-06
8.9827e-06
1.27153e-06
8.7661e-06
8.96919e-06
4.35502e-07
9.02464e-06
1.20806e-06
8.98627e-06
8.96729e-06
5.24364e-06
7.3844e-06
9.00281e-06
8.39262e-06
9.02737e-06
2.92376e-06
8.86682e-06
8.40686e-06
8.89599e-06
7.71253e-06
8.99232e-06
8.97022e-06
8.24793e-06
8.28097e-06
8.81685e-06
9.01839e-06
4.40933e-06
6.88199e-06
4.35625e-07
8.86162e-06
8.99442e-06
1.32108e-06
8.56279e-06
8.97066e-06
3.6532e-07
8.99365e-06
9.03601e-06
8.99485e-06
9.01031e-06
8.84508e-06
8.07985e-06
6.65286e-06
8.78321e-06
6.40666e-06
1.27614e-06
8.79189e-06
3.83779e-07
8.10505e-06
9.01416e-06
8.91815e-06
9.01466e-06
9.03315e-06
8.66374e-06
5.82437e-06
7.62454e-06
1.66295e-06
9.01038e-06
8.24529e-06
8.41147e-06
1.01684e-06
5.87458e-06
7.35114e-07
7.87372e-06
8.99368e-06
8.94954e-06
8.99901e-06
8.5125e-06
8.84225e-06
9.00775e-06
8.69164e-06
8.9963e-06
8.96856e-06
8.77311e-06
9.03303e-06
8.96151e-06
8.96404e-06
8.3674e-07
2.09313e-06
8.61029e-06
9.03622e-06
4.51924e-06
1.00307e-06
3.43892e-06
8.68203e-06
1.1697e-06
5.72139e-06
8.99187e-06
8.97556e-06
8.10797e-06
3.57888e-06
4.00651e-06
1.02315e-06
8.76214e-06
8.39094e-06
9.00543e-06
6.26182e-06
8.97436e-06
1.06262e-06
9.84666e-07
1.62627e-06
1.15888e-07
9.00389e-06
8.97104e-06
4.21799e-06
8.63992e-06
8.02587e-06
8.99134e-06
8.37296e-06
8.78868e-06
7.3953e-06
8.4085e-06
1.48475e-06
6.34127e-06
1.18165e-06
8.35724e-06
8.92415e-06
8.94438e-06
8.46028e-06
9.00936e-06
9.00855e-06
8.55001e-06
8.3319e-07
6.11856e-06
8.91507e-06
8.68851e-06
2.25776e-06
7.08347e-06
8.37923e-06
5.86076e-06
9.03475e-06
8.80965e-06
8.71579e-06
9.01156e-06
8.48865e-06
8.31904e-06
8.31823e-06
8.41313e-06
5.50474e-06
8.24115e-06
8.99227e-06
1.4657e-06
8.98977e-06
5.07167e-06
7.01997e-06
8.45791e-06
8.82812e-06
8.97234e-06
9.00762e-06
8.59633e-06
8.90399e-06
8.7499e-06
8.35016e-06
8.76773e-06
3.31347e-06
8.60406e-06
8.30671e-06
8.97277e-06
8.28218e-06
5.57307e-06
5.79945e-06
5.07816e-06
8.95663e-06
8.99459e-06
8.948e-06
9.00745e-06
1.14445e-06
8.34232e-06
9.01143e-06
2.82148e-06
5.52277e-06
8.88834e-06
8.96835e-06
8.38696e-06
9.00493e-06
6.19121e-06
8.28017e-06
8.43406e-06
2.61916e-06
6.10085e-06
8.3657e-06
3.922e-06
8.99837e-06
8.58655e-06
8.38167e-06
8.37342e-06
6.19283e-06
8.56114e-06
8.36964e-06
8.61821e-06
8.90456e-06
9.01262e-06
8.97897e-06
9.00674e-06
6.41001e-06
6.02173e-06
8.20978e-06
8.94785e-06
5.89109e-06
3.23525e-06
8.88998e-06
1.3267e-06
8.66892e-06
9.00802e-06
5.70889e-06
5.5009e-06
4.92099e-06
8.98159e-06
8.24378e-06
8.20865e-06
8.37026e-06
8.50805e-06
8.98962e-06
8.61625e-06
8.38631e-06
5.63602e-06
9.00975e-06
8.40501e-06
7.50075e-06
4.55678e-06
7.62054e-06
3.35505e-06
8.8472e-06
8.48574e-06
9.0087e-06
8.38909e-06
9.03033e-06
8.75151e-06
5.95245e-07
8.76271e-06
8.93883e-06
8.9235e-06
6.10617e-06
8.60914e-06
9.0081e-06
8.36223e-06
8.3483e-06
8.60398e-06
8.9955e-06
6.17765e-06
9.00028e-06
2.76366e-06
9.01257e-06
8.89994e-06
5.93364e-06
3.15406e-06
3.50785e-06
8.89437e-06
5.81381e-06
8.59184e-06
6.00625e-06
8.67571e-06
8.47202e-06
8.85649e-06
1.07367e-06
8.60487e-06
9.01004e-06
3.24112e-06
8.79923e-06
7.38887e-06
8.21726e-06
4.47095e-06
5.99641e-06
8.10683e-06
9.00885e-06
8.98494e-06
8.62773e-06
8.75768e-06
8.8415e-06
6.27795e-06
5.34331e-06
8.3913e-06
8.59462e-06
4.66151e-06
8.74218e-06
8.98651e-06
8.86689e-06
3.50807e-07
8.54171e-06
8.63474e-06
4.2314e-06
8.80619e-06
8.98911e-06
9.01745e-06
8.63414e-06
5.11859e-06
8.88836e-06
8.76509e-06
8.93714e-06
6.14782e-06
8.88953e-06
6.67824e-06
8.64498e-06
8.64396e-06
9.01724e-06
2.22744e-06
6.07527e-06
4.78355e-07
3.37106e-06
8.77935e-06
5.33003e-06
8.82538e-06
8.06631e-06
3.38923e-06
1.43603e-06
8.96974e-06
8.63539e-06
9.01705e-06
8.8406e-06
2.91604e-06
6.42564e-06
7.24169e-06
9.0215e-06
9.02118e-06
8.74059e-06
8.94746e-06
8.98769e-06
2.30756e-06
8.70834e-06
1.93994e-06
6.58913e-06
8.40349e-06
5.75854e-06
8.44747e-06
8.98254e-06
8.7365e-06
8.24353e-06
1.87446e-06
1.78102e-06
8.57779e-06
8.724e-06
8.93214e-06
8.9822e-06
8.85302e-06
8.99364e-06
8.87481e-06
6.01851e-06
8.89326e-06
9.00662e-06
1.33837e-06
2.56199e-06
8.54586e-06
8.69078e-06
7.09876e-07
9.01833e-06
8.88525e-06
5.58709e-06
8.9633e-06
6.86438e-06
8.40623e-06
7.1795e-06
8.85885e-06
8.98773e-06
2.85617e-06
6.41528e-06
8.67085e-06
2.98938e-06
8.81834e-06
7.6053e-06
6.17373e-06
6.04445e-06
8.91556e-06
8.87518e-06
8.36716e-06
8.86755e-06
8.75013e-06
5.13634e-06
9.01156e-06
9.00327e-06
8.6024e-06
7.1693e-07
3.60371e-06
5.53275e-06
4.96474e-07
8.78374e-06
8.90031e-06
6.5091e-06
6.20392e-06
8.72501e-06
8.16079e-06
8.8739e-06
8.97123e-06
8.60115e-06
8.67525e-06
6.64558e-06
9.24395e-07
8.98968e-06
5.88756e-06
8.98497e-06
5.92884e-06
5.96281e-06
8.93367e-06
8.75808e-06
8.79767e-06
9.03217e-06
8.65155e-06
8.99935e-06
8.87958e-06
8.86768e-06
8.44386e-06
5.78328e-07
8.98616e-06
8.93815e-06
9.00707e-06
7.81385e-06
8.90802e-06
5.63856e-06
5.23733e-06
8.92688e-06
8.72948e-06
8.69395e-06
8.74361e-06
8.91054e-06
7.27648e-06
8.97678e-06
8.89125e-06
8.99109e-06
8.8511e-06
8.89707e-06
8.98947e-06
8.56503e-06
8.80678e-06
8.94831e-06
8.95036e-06
6.41643e-06
6.07903e-06
8.88915e-06
8.98872e-06
9.02381e-06
8.9302e-06
8.97425e-06
8.97931e-06
8.85737e-06
8.98045e-06
9.02663e-06
6.45543e-06
9.0055e-06
6.22497e-06
8.96601e-06
9.03326e-06
8.85083e-06
8.94313e-06
8.43117e-06
8.86539e-06
5.8052e-06
8.8265e-06
8.6603e-06
8.85529e-06
8.34777e-06
8.94446e-06
8.9282e-06
8.97059e-06
5.88203e-06
6.36111e-06
8.627e-06
8.46108e-06
9.01669e-06
8.5553e-06
6.95274e-06
5.85785e-06
8.93389e-06
8.97022e-06
1.1877e-06
7.50242e-06
8.89132e-06
8.98297e-06
6.71237e-06
8.79808e-06
5.66622e-06
8.93415e-06
8.95935e-06
8.98693e-06
6.11392e-06
8.8393e-06
8.94503e-06
8.89655e-06
8.69804e-06
5.84548e-06
8.87619e-06
8.98352e-06
4.75023e-07
6.17732e-06
1.9218e-06
9.02045e-06
9.03017e-06
8.9876e-06
8.95106e-06
8.96317e-06
8.98854e-06
8.41864e-06
8.63227e-06
8.97614e-06
8.85988e-06
5.87641e-06
8.77776e-06
8.8652e-06
8.97676e-06
8.11215e-07
8.93786e-06
8.98909e-06
8.96698e-06
8.95375e-06
8.90223e-06
8.99048e-06
8.8114e-06
1.26014e-06
8.98744e-06
9.08834e-06
8.84069e-06
9.00961e-06
9.00706e-06
8.99987e-06
2.64884e-06
8.9404e-06
8.55837e-06
6.23466e-06
9.00417e-06
8.97699e-06
9.02432e-06
8.9207e-06
8.82639e-06
8.98094e-06
9.00904e-06
8.99051e-06
9.0225e-06
8.81568e-06
6.47601e-06
8.9865e-06
8.98604e-06
8.97025e-06
8.72434e-06
8.82785e-06
8.99697e-06
8.99775e-06
8.99449e-06
8.84776e-06
9.00032e-06
8.44614e-06
6.543e-06
8.99104e-06
8.93884e-06
8.92633e-06
5.76865e-06
8.96054e-06
9.00444e-06
8.988e-06
9.01189e-06
8.99924e-06
8.83938e-06
8.98864e-06
8.8937e-06
8.83404e-06
4.58177e-06
9.00754e-06
8.97548e-06
5.76392e-06
8.92656e-06
8.46337e-06
8.99711e-06
8.81296e-06
8.97636e-06
7.29864e-06
9.01256e-06
9.008e-06
8.8812e-06
4.82652e-06
8.99385e-06
9.01099e-06
6.03782e-06
8.93313e-06
8.99194e-06
8.98645e-06
8.98884e-06
8.96369e-06
9.00924e-06
8.90287e-06
9.00351e-06
8.87022e-06
3.28176e-06
5.72967e-06
8.96824e-06
8.84333e-06
8.98877e-06
9.00965e-06
2.83109e-06
8.61792e-06
8.85229e-06
8.57978e-06
8.95701e-06
5.31495e-06
8.96001e-06
8.95928e-06
8.90962e-06
9.01663e-06
8.40247e-06
8.98651e-06
8.74797e-06
5.06378e-06
2.20066e-06
9.0014e-06
8.86877e-06
8.94802e-06
8.94574e-06
9.02209e-06
4.38868e-06
8.90034e-06
8.92772e-06
5.79529e-06
8.80452e-06
8.97868e-06
8.88222e-06
8.80793e-06
8.99402e-06
8.98871e-06
1.69149e-06
8.99553e-06
9.03485e-06
6.32498e-06
8.3501e-06
5.66266e-06
5.49409e-06
9.01636e-06
8.98828e-06
8.99137e-06
9.01784e-06
8.97911e-06
6.23621e-06
4.9248e-06
8.88124e-06
8.98362e-06
9.01549e-06
5.88135e-06
8.94946e-06
9.00124e-06
8.95229e-06
8.98395e-06
9.01036e-06
9.00028e-06
8.98645e-06
9.01604e-06
9.0212e-06
6.12765e-06
8.94801e-06
8.99215e-06
5.97606e-06
8.98945e-06
8.92024e-06
9.02566e-06
8.9463e-06
8.98879e-06
4.40147e-06
8.95587e-06
9.01652e-06
8.99276e-06
8.899e-06
8.93201e-06
5.4606e-06
8.99116e-06
8.86509e-06
8.91846e-06
9.00593e-06
8.99281e-06
9.0129e-06
9.00629e-06
8.8562e-06
8.9934e-06
9.01688e-06
9.01232e-06
5.6518e-06
6.54136e-06
9.01407e-06
6.28898e-06
8.93857e-06
8.98479e-06
8.99243e-06
9.01572e-06
6.3447e-06
3.66547e-06
8.98379e-06
8.92898e-06
8.98242e-06
8.98321e-06
8.83804e-06
9.01139e-06
8.91793e-06
5.40788e-06
8.95319e-06
8.98919e-06
8.9063e-06
6.07924e-06
8.99553e-06
6.04185e-06
8.86584e-06
8.9227e-06
8.99083e-06
8.98319e-06
9.01707e-06
8.83186e-06
9.0025e-06
8.97042e-06
8.95269e-06
8.9824e-06
8.98868e-06
8.9503e-06
8.99284e-06
6.13198e-06
8.99466e-06
9.00803e-06
8.97978e-06
8.82355e-06
8.98799e-06
8.9935e-06
8.8856e-06
8.87156e-06
1.67964e-06
8.98326e-06
8.99183e-06
8.97104e-06
8.98167e-06
9.01905e-06
8.94465e-06
8.9156e-06
5.56631e-06
9.0091e-06
8.9879e-06
8.84137e-06
5.96036e-06
8.99556e-06
8.96377e-06
-2.27406e-07
9.00552e-06
8.90487e-06
8.93551e-06
8.96558e-06
9.02508e-06
2.2871e-06
4.28838e-06
8.95406e-06
8.9092e-06
8.96129e-06
5.63542e-06
8.94887e-06
3.12403e-06
8.99458e-06
8.94129e-06
8.99595e-06
9.02697e-06
5.69087e-06
8.91706e-06
5.98307e-06
8.94536e-06
6.08271e-06
8.93727e-06
8.95678e-06
8.98018e-06
8.90346e-06
9.01317e-06
8.99835e-06
8.6423e-06
8.957e-06
8.98321e-06
9.00051e-06
8.48944e-06
9.01433e-06
9.00144e-06
9.01965e-06
8.88542e-06
8.97784e-06
5.53429e-06
8.99103e-06
9.0141e-06
8.9884e-06
8.41115e-06
8.95361e-06
8.94198e-06
5.89313e-06
5.95872e-06
3.33877e-06
8.99941e-06
9.02126e-06
5.97869e-06
8.96485e-06
8.99887e-06
8.77312e-06
8.99669e-06
8.98575e-06
8.99766e-06
8.94926e-06
8.94597e-06
9.00886e-06
8.9685e-06
8.98765e-06
9.0013e-06
8.98891e-06
8.89998e-06
8.87449e-06
9.00015e-06
9.01372e-06
6.08642e-06
8.73492e-06
8.90624e-06
8.86735e-06
8.97714e-06
4.85407e-06
3.94499e-06
9.01846e-06
8.99055e-06
8.95417e-06
8.93865e-06
8.98038e-06
5.87672e-06
8.99298e-06
8.97774e-06
5.9571e-06
8.79191e-06
8.98639e-06
9.01712e-06
8.86442e-06
9.02229e-06
8.87703e-06
2.8245e-06
2.83776e-06
9.13666e-06
8.97663e-06
9.0138e-06
9.01384e-06
5.79439e-06
8.94465e-06
8.98327e-06
8.89359e-06
9.02712e-06
8.98444e-06
9.00768e-06
9.01298e-06
2.64993e-06
5.9261e-06
9.03992e-07
9.01088e-06
8.99337e-06
1.78592e-06
8.97987e-06
6.0346e-06
9.02435e-06
4.83657e-06
8.92949e-06
9.00966e-06
8.73781e-06
8.99146e-06
6.13414e-06
5.98481e-06
5.64504e-06
8.97539e-06
9.02224e-06
9.02381e-06
9.00122e-06
8.98535e-06
8.92738e-06
6.12183e-06
9.01482e-06
8.98913e-06
9.00772e-06
8.96272e-06
8.98991e-06
3.06627e-06
8.98502e-06
9.01189e-06
8.99724e-06
9.00502e-06
9.00491e-06
5.6105e-06
8.99504e-06
9.04758e-06
8.96346e-06
8.88693e-06
9.02398e-06
9.01251e-06
9.00891e-06
4.93533e-06
8.76336e-06
8.8397e-06
8.93673e-06
9.01488e-06
9.00541e-06
8.98785e-06
8.70376e-06
8.88453e-06
4.73492e-06
5.40104e-06
9.00046e-06
9.02071e-06
8.75494e-06
8.98571e-06
8.9876e-06
8.90059e-06
8.9583e-06
2.16665e-06
9.00534e-06
9.01705e-06
5.44222e-06
8.99227e-06
5.35895e-06
8.99264e-06
8.52803e-06
8.98913e-06
9.00501e-06
9.01315e-06
5.81171e-06
8.85559e-06
8.96996e-06
8.9927e-06
8.95328e-06
9.02484e-06
8.99346e-06
9.026e-06
9.00643e-06
5.49853e-06
9.02198e-06
9.0015e-06
9.00293e-06
8.90361e-06
8.98966e-06
8.98929e-06
3.33419e-06
5.09706e-06
8.98504e-06
5.39831e-06
9.01931e-06
8.87568e-06
9.01696e-06
9.0027e-06
9.00311e-06
8.94791e-06
8.95599e-06
8.90133e-06
9.00499e-06
9.00938e-06
8.90485e-06
8.94394e-06
6.57598e-06
9.03063e-06
8.95846e-06
8.90391e-06
8.91533e-06
9.00667e-06
9.00359e-06
9.01739e-06
8.95569e-06
5.25243e-06
8.86141e-06
9.01004e-06
5.33175e-06
8.99464e-06
5.51161e-06
9.02871e-06
9.01048e-06
8.99042e-06
9.0026e-06
8.97827e-06
9.01801e-06
4.30415e-06
8.95167e-06
9.02389e-06
8.96658e-06
8.98748e-06
8.94731e-06
9.00673e-06
8.91669e-06
9.01024e-06
8.98865e-06
9.01376e-06
4.99476e-06
9.00977e-06
8.90611e-06
8.80967e-06
9.02311e-06
5.5677e-06
9.02316e-06
8.97372e-06
8.89931e-06
8.88247e-06
8.86671e-06
5.54502e-06
9.01366e-06
9.02419e-06
8.86962e-06
9.00435e-06
9.00736e-06
9.01239e-06
5.74167e-06
9.0057e-06
8.98694e-06
5.3666e-06
8.97375e-06
9.01219e-06
8.99808e-06
8.89044e-06
8.97284e-06
8.8988e-06
8.92015e-06
5.18068e-06
5.26052e-06
8.83919e-06
8.38644e-07
9.0501e-06
9.00356e-06
8.98437e-06
9.03689e-06
5.32752e-06
8.8752e-06
8.8834e-06
9.00653e-06
8.99072e-06
9.00054e-06
5.59934e-06
5.77982e-06
5.19857e-06
5.32676e-06
5.28275e-06
1.00048e-06
2.28457e-06
9.0115e-06
9.01461e-06
5.01465e-06
5.21381e-06
5.08109e-06
9.01958e-06
8.95831e-06
9.0248e-06
8.98833e-06
9.00675e-06
9.01053e-06
9.00917e-06
9.01726e-06
9.00067e-06
9.00866e-06
9.00304e-06
9.01025e-06
3.33547e-06
9.00607e-06
9.01384e-06
9.00893e-06
9.01107e-06
9.00818e-06
9.00539e-06
5.3291e-06
8.3681e-06
9.01188e-06
8.97839e-06
8.98082e-06
9.03502e-06
5.11073e-06
8.89597e-06
9.01003e-06
3.9442e-06
8.95274e-06
9.02439e-06
5.24558e-06
5.36005e-06
5.5464e-06
5.62045e-06
5.1557e-06
8.8847e-06
8.99737e-06
9.01843e-06
8.9126e-06
9.01056e-06
9.00803e-06
8.89875e-06
5.1978e-06
5.11032e-06
8.90819e-06
9.02291e-06
9.00242e-06
9.01135e-06
9.02209e-06
5.66418e-06
5.2298e-06
5.24261e-06
9.01024e-06
9.00528e-06
8.97673e-06
9.01065e-06
8.95797e-06
8.98704e-06
5.98949e-06
8.88942e-06
9.01787e-06
4.56361e-06
5.19272e-06
5.2961e-06
8.98763e-06
8.48313e-06
9.00278e-06
1.07056e-06
4.76447e-06
5.69942e-06
9.02321e-06
8.92907e-06
5.28898e-06
8.99342e-06
5.15105e-06
9.0111e-06
8.89427e-06
9.01145e-06
5.06627e-06
8.89257e-06
8.92226e-06
9.01566e-06
9.02847e-06
9.02139e-06
4.57943e-06
9.01192e-06
5.1852e-06
9.01229e-06
8.98377e-06
8.92527e-06
5.24671e-06
9.00905e-06
5.09914e-06
8.99251e-06
8.89942e-06
5.1261e-06
8.99834e-06
5.00094e-06
9.02668e-06
4.90595e-06
5.47031e-06
8.98529e-06
9.01403e-06
5.05973e-06
5.39378e-06
5.46429e-06
5.43449e-06
9.01323e-06
8.95666e-06
9.00523e-06
4.91674e-06
8.98818e-06
1.09144e-06
9.0265e-06
5.16763e-06
8.982e-06
5.02868e-06
4.9939e-06
1.62863e-06
5.0133e-06
4.97232e-06
8.99647e-06
5.19637e-06
5.33764e-06
2.05377e-06
4.85833e-06
4.97105e-06
5.02779e-06
5.40347e-06
8.99731e-06
5.41342e-06
9.01831e-06
5.31897e-06
5.43781e-06
5.11511e-06
3.92001e-06
9.02985e-06
3.99066e-06
4.90247e-06
5.03237e-06
4.49788e-06
5.34479e-06
9.01471e-06
4.40155e-06
4.87686e-06
4.28678e-06
8.96264e-06
5.24835e-06
4.86407e-06
5.36111e-06
4.88451e-06
4.95135e-06
2.97253e-06
3.01547e-06
4.57727e-06
5.45399e-06
4.8236e-06
4.3971e-06
4.76474e-06
5.12033e-06
5.5215e-06
4.781e-06
4.58483e-06
4.38774e-06
4.191e-06
5.12761e-06
4.79749e-06
4.95433e-06
9.02518e-06
4.90987e-06
5.16453e-06
4.67123e-06
4.89218e-06
5.19045e-06
4.62158e-06
4.75085e-06
5.24764e-06
5.31175e-06
5.06314e-06
4.74754e-06
4.68345e-06
4.70755e-06
4.42656e-06
4.49019e-06
9.00431e-06
4.77546e-06
2.19962e-06
4.79111e-06
4.80249e-06
4.70502e-06
4.3343e-06
4.1096e-06
9.0165e-06
4.60023e-06
3.24707e-06
4.55766e-06
4.61434e-06
4.78598e-06
4.74709e-06
3.85798e-06
4.65439e-06
4.74875e-06
4.53377e-06
4.97467e-06
4.84576e-06
4.9634e-06
5.51609e-06
4.5223e-06
4.98235e-06
4.82415e-06
4.29429e-06
4.80478e-06
4.59875e-06
4.46492e-06
4.95128e-06
4.6518e-06
4.47652e-06
4.48922e-06
4.70434e-06
4.48985e-06
4.74181e-06
4.72192e-06
4.13553e-06
4.87653e-06
4.37592e-06
4.30619e-06
5.44696e-06
4.06907e-06
4.38074e-06
4.21088e-06
4.65334e-06
4.4576e-06
4.68882e-06
4.48532e-06
9.0017e-06
4.63468e-06
4.39626e-06
4.501e-06
4.30397e-06
4.37011e-06
4.47032e-06
4.29107e-06
4.76843e-06
4.80673e-06
4.39474e-06
4.32465e-06
4.37982e-06
9.02904e-06
4.30693e-06
5.15884e-06
4.34165e-06
4.21725e-06
4.21084e-06
4.13043e-06
4.54702e-06
4.45693e-06
4.16295e-06
4.29576e-06
4.4005e-06
4.60945e-06
4.26124e-06
4.42484e-06
4.21117e-06
4.12614e-06
4.24556e-06
4.44754e-06
4.2163e-06
4.56178e-06
4.08408e-06
4.41449e-06
4.39622e-06
4.3653e-06
3.9594e-06
4.03631e-06
4.12843e-06
4.00202e-06
4.12075e-06
4.37734e-06
4.22948e-06
4.21263e-06
4.21381e-06
4.13385e-06
4.30195e-06
5.0874e-06
3.98765e-06
4.34168e-06
4.31279e-06
4.05092e-06
4.24311e-06
3.89546e-06
4.17893e-06
4.03883e-06
4.04481e-06
4.54114e-06
3.91586e-06
3.89818e-06
4.17014e-06
4.16352e-06
2.82047e-06
3.97697e-06
4.13617e-06
3.82882e-06
3.82836e-06
3.95534e-06
4.22359e-06
3.88406e-06
4.09313e-06
3.95934e-06
4.1242e-06
4.11605e-06
3.63032e-06
3.74312e-06
3.97172e-06
4.05069e-06
4.10077e-06
4.37558e-06
3.59717e-06
3.70599e-06
3.79475e-06
3.36207e-06
3.83052e-06
4.0188e-06
3.88002e-06
3.87609e-06
3.1968e-06
3.46848e-06
3.51127e-06
3.64421e-06
3.92898e-06
3.66157e-06
3.50008e-06
3.74085e-06
3.5651e-06
3.94638e-06
3.68902e-06
3.95604e-06
3.82588e-06
3.5484e-06
3.70807e-06
3.40583e-06
3.46965e-06
3.36445e-06
3.63217e-06
3.81041e-06
3.49942e-06
3.69209e-06
3.77912e-06
3.63569e-06
3.58526e-06
3.86688e-06
3.47491e-06
3.54135e-06
3.84873e-06
3.48907e-06
3.60977e-06
3.75303e-06
3.59575e-06
3.872e-06
3.27234e-06
3.63581e-06
4.03136e-06
3.57331e-06
3.74902e-06
3.54415e-06
3.39331e-06
3.71114e-06
3.32964e-06
3.45397e-06
3.56486e-06
3.62675e-06
3.8065e-06
3.47164e-06
3.47912e-06
3.41845e-06
3.52889e-06
3.40091e-06
3.51299e-06
4.99905e-06
3.30499e-06
3.54201e-06
1.01228e-06
1.0588e-06
3.40329e-06
3.46712e-06
3.37365e-06
3.27907e-06
3.57156e-06
3.47555e-06
2.73984e-06
3.36234e-06
3.5466e-06
3.48802e-06
3.2133e-06
3.48387e-06
3.9017e-06
3.24164e-06
3.41763e-06
3.7434e-06
3.31961e-06
3.13034e-06
3.24692e-06
3.28361e-06
3.45658e-06
3.45342e-06
3.08373e-06
3.51262e-06
3.34891e-06
2.84821e-06
3.33816e-06
3.00947e-06
3.18788e-06
3.22692e-06
3.20513e-06
3.3437e-06
2.7588e-06
4.58539e-06
3.29404e-06
2.99772e-06
3.08744e-06
2.9937e-06
3.17133e-06
2.79571e-06
2.8977e-06
3.07782e-06
2.88789e-06
2.91111e-06
3.11122e-06
3.02513e-06
3.05106e-06
2.94059e-06
3.14695e-06
2.92992e-06
2.83689e-06
3.31134e-06
3.12696e-06
3.17606e-06
3.00426e-06
2.80304e-06
3.05015e-06
3.09848e-06
2.96707e-06
2.98625e-06
3.22009e-06
2.92364e-06
2.70195e-06
3.0165e-06
2.89373e-06
2.87221e-06
3.06561e-06
1.97544e-06
2.74936e-06
2.79201e-06
2.9127e-06
2.92064e-06
2.9436e-06
3.38238e-06
2.32043e-06
2.82495e-06
2.59935e-06
2.55139e-06
2.97443e-06
2.90734e-06
2.89848e-06
2.7311e-06
2.83759e-06
2.74925e-06
2.60612e-06
2.75057e-06
2.64439e-06
2.25654e-06
1.95271e-06
2.40922e-06
2.05087e-06
3.47384e-06
2.50245e-06
2.71323e-06
2.17557e-06
2.65509e-06
2.64083e-06
2.55685e-06
2.31143e-06
2.08996e-06
2.68635e-06
2.81886e-06
2.57201e-06
2.55713e-06
2.26985e-06
2.65813e-06
1.77989e-06
2.39695e-06
1.87867e-06
2.68821e-06
2.44793e-06
2.15447e-06
2.57529e-06
2.63286e-06
2.46177e-06
2.58841e-06
2.65518e-06
2.45422e-06
2.36083e-06
2.76799e-06
2.46085e-06
1.68622e-06
1.99186e-06
2.51794e-06
2.56272e-06
2.49086e-06
2.49513e-06
2.54005e-06
2.40131e-06
2.12963e-06
2.40471e-06
2.04639e-06
2.27111e-06
2.19557e-06
2.34897e-06
2.48269e-06
2.22086e-06
2.3525e-06
2.39788e-06
2.40663e-06
3.26021e-06
2.5001e-06
2.42227e-06
2.18951e-06
2.46675e-06
2.83731e-06
2.49598e-06
2.57801e-06
2.39821e-06
2.28365e-06
2.23829e-06
2.11029e-06
2.42321e-06
2.25601e-06
2.21731e-06
2.45681e-06
2.55904e-06
2.33372e-06
2.17992e-06
1.88918e-06
2.28715e-06
2.45715e-06
2.31657e-06
1.97733e-06
2.27203e-06
2.19527e-06
2.22682e-06
2.40746e-06
2.19056e-06
2.10381e-06
2.03594e-06
1.93521e-06
2.17791e-06
1.66389e-06
1.74258e-06
2.09569e-06
2.05395e-06
2.03578e-06
2.3171e-06
1.83326e-06
1.88178e-06
2.14464e-06
2.17624e-06
2.09439e-06
1.99159e-06
1.85623e-06
1.9757e-06
2.02937e-06
1.80886e-06
1.86884e-06
1.88266e-06
2.07229e-06
1.95843e-06
2.11832e-06
1.56356e-06
1.86923e-06
1.86178e-06
1.77635e-06
1.72095e-06
2.84589e-06
1.96902e-06
1.92947e-06
1.9187e-06
2.01516e-06
2.12378e-06
1.67644e-06
2.02311e-06
1.86022e-06
1.87501e-06
1.6279e-06
1.64709e-06
1.76142e-06
1.78334e-06
1.89364e-06
1.86315e-06
1.75883e-06
2.02232e-06
1.58894e-06
1.95879e-06
1.53349e-06
1.87198e-06
1.31298e-06
1.64601e-06
1.68243e-06
1.45159e-06
1.52582e-06
1.79621e-06
1.3853e-06
1.42335e-06
2.43004e-06
1.58658e-06
1.70254e-06
1.55146e-06
1.53467e-06
1.32985e-06
1.38274e-06
1.40554e-06
1.48297e-06
1.39331e-06
1.56594e-06
1.42968e-06
1.41428e-06
1.3774e-06
1.45855e-06
1.5143e-06
1.23707e-06
1.24649e-06
1.38812e-06
1.24421e-06
1.46751e-06
1.25667e-06
1.34193e-06
1.54939e-06
1.43119e-06
1.22048e-06
1.14573e-06
1.4261e-06
1.17864e-06
1.3013e-06
1.46737e-06
1.19122e-06
1.0553e-06
1.29359e-06
1.1542e-06
1.16712e-06
1.14749e-06
1.22329e-06
9.65343e-07
1.13462e-06
1.02282e-06
1.10498e-06
1.34023e-06
1.03717e-06
1.29655e-06
1.25519e-06
9.44182e-07
1.43806e-06
1.02977e-06
3.13175e-06
1.15038e-06
1.68935e-06
1.10537e-06
1.04658e-06
1.03829e-06
3.71334e-06
2.88691e-06
2.6884e-06
1.94463e-06
1.2916e-06
1.53977e-06
8.18575e-07
9.74474e-07
9.47334e-07
1.74518e-06
8.74629e-07
1.1912e-06
4.76901e-06
2.03697e-06
2.50587e-06
1.82612e-06
1.20745e-06
2.83048e-06
3.05236e-06
2.86994e-06
2.07704e-06
1.53302e-06
4.10912e-06
1.48502e-06
3.61237e-06
1.1005e-06
8.94058e-07
1.09471e-06
4.28197e-06
1.09178e-06
5.32334e-06
2.27833e-06
2.44773e-06
2.61894e-06
2.46658e-06
4.26018e-06
2.60669e-06
1.93359e-06
1.87318e-06
2.61982e-06
2.72553e-06
2.74461e-06
8.77386e-07
3.51208e-06
3.48131e-06
1.69015e-06
4.51947e-06
2.72674e-06
4.37467e-07
2.15212e-06
1.00773e-06
3.04849e-06
5.39466e-06
5.82907e-06
1.71798e-06
1.23963e-06
1.20371e-06
3.94887e-06
1.26575e-06
3.99363e-06
1.09373e-06
4.1849e-06
4.44958e-06
1.6317e-06
5.86307e-06
1.02994e-06
1.04323e-06
2.97073e-06
4.54058e-06
3.33381e-06
3.77811e-06
3.99373e-06
4.68626e-06
2.02607e-06
6.45988e-06
1.04995e-06
3.04156e-06
1.20706e-06
5.24203e-06
5.64422e-06
1.0067e-06
5.21914e-07
5.44721e-06
4.35958e-06
4.60482e-06
4.8679e-06
5.6412e-06
6.03899e-07
6.57736e-07
3.86359e-06
4.11769e-06
5.63297e-06
4.44817e-06
1.10086e-06
3.25814e-06
5.58033e-06
4.13155e-06
1.11637e-06
3.93718e-06
5.87418e-06
4.6242e-06
5.94537e-06
2.45522e-06
1.57971e-06
1.44678e-06
1.02111e-06
5.46425e-06
5.11094e-06
4.63035e-06
8.37882e-07
9.24792e-07
1.35768e-06
5.53065e-06
9.13159e-07
1.0679e-06
1.07627e-06
1.54836e-06
1.82223e-06
1.10677e-06
9.96249e-07
1.85517e-06
1.09409e-06
1.21232e-06
1.54935e-06
1.34604e-06
1.74486e-06
1.222e-06
1.55022e-06
1.77726e-06
1.35376e-06
1.61216e-06
1.48071e-06
1.91444e-06
1.85769e-06
1.49613e-06
1.51733e-06
1.49913e-06
1.60794e-06
2.28455e-06
1.5785e-06
2.34576e-06
1.46276e-06
1.57173e-06
1.6321e-06
1.45186e-06
2.45814e-06
1.59295e-06
2.14087e-06
1.70462e-06
1.71554e-06
2.37444e-06
1.73412e-06
2.56233e-06
2.90616e-06
2.25791e-06
1.7927e-06
2.83194e-06
2.59223e-06
2.63375e-06
2.64811e-06
2.46266e-06
2.37318e-06
2.53191e-06
1.84973e-06
2.55034e-06
2.37209e-06
2.50261e-06
1.81339e-06
2.54929e-06
3.19764e-06
2.61647e-06
2.70404e-06
2.74173e-06
2.49655e-06
3.26948e-06
2.54391e-06
2.69387e-06
2.76221e-06
3.01269e-06
2.68819e-06
2.58495e-06
3.08837e-06
3.40256e-06
3.00365e-06
3.23048e-06
3.2084e-06
3.81093e-06
3.10685e-06
3.29154e-06
2.59415e-06
3.78357e-06
3.17466e-06
3.38798e-06
3.49416e-06
3.15387e-06
3.42228e-06
3.69207e-06
3.97833e-06
3.51418e-06
3.59658e-06
3.67646e-06
4.12257e-06
3.72748e-06
3.60378e-06
3.91948e-06
4.23569e-06
3.95616e-06
3.64804e-06
3.60382e-06
3.55624e-06
4.02181e-06
4.02909e-06
3.70067e-06
3.6617e-06
3.72277e-06
4.01959e-06
3.78903e-06
4.08937e-06
3.74931e-06
4.17226e-06
3.83605e-06
4.32839e-06
4.1653e-06
4.09182e-06
4.69189e-06
4.25327e-06
4.30602e-06
4.21361e-06
4.59831e-06
4.30467e-06
3.83187e-06
4.86721e-06
4.23993e-06
9.0306e-06
4.50756e-06
5.08837e-06
4.53725e-06
4.96952e-06
5.03942e-06
8.99197e-06
4.68885e-06
5.16477e-06
5.22248e-06
9.83576e-07
4.71056e-06
4.87217e-06
9.01226e-06
5.24887e-06
5.18254e-06
5.42798e-06
8.95665e-06