/*--------------------------------*- C++ -*----------------------------------*\
  =========                 |
  \\      /  F ield         | OpenFOAM: The Open Source CFD Toolbox
   \\    /   O peration     | Website:  https://openfoam.org
    \\  /    A nd           | Version:  8
     \\/     M anipulation  |
\*---------------------------------------------------------------------------*/
FoamFile
{
    version     2.0;
    format      ascii;
    class       surfaceScalarField;
    location    "9.6";
    object      phi;
}
// * * * * * * * * * * * * * * * * * * * * * * * * * * * * * * * * * * * * * //

dimensions      [0 3 -1 0 0 0 0];

internalField   nonuniform List<scalar> 
8224
(
3.9916e-10
3.40593e-10
-5.61102e-10
-1.78651e-10
-3.90029e-11
4.20209e-09
-1.06358e-10
-4.05673e-09
-3.92836e-10
-1.83443e-10
-1.82557e-10
7.58837e-10
-7.7958e-09
3.04522e-09
-2.55582e-09
7.30641e-09
3.88157e-09
-1.95795e-10
1.73548e-10
-3.85933e-09
4.11256e-09
-2.72223e-10
1.34222e-10
-3.97456e-09
-3.88957e-09
-7.21591e-10
-9.41855e-11
4.70534e-09
-4.12624e-09
5.26385e-10
-7.38653e-11
3.67372e-09
1.71442e-09
-1.98992e-09
2.75503e-10
-2.99931e-09
-3.04883e-09
5.88019e-09
1.67951e-10
-6.64092e-10
-6.48263e-12
6.66876e-10
3.69835e-12
-9.76541e-10
-3.92514e-09
5.44317e-09
-5.41496e-10
-9.60736e-10
-1.7104e-10
1.93019e-09
-7.98412e-10
1.91002e-09
-9.64107e-10
-8.64138e-09
7.69547e-09
2.32013e-09
-2.20484e-09
-1.15289e-10
-4.29498e-09
4.31541e-09
1.79039e-11
-3.83383e-11
-4.0443e-09
6.91299e-10
6.20008e-11
3.291e-09
5.91814e-09
-4.87025e-09
4.97897e-09
-6.02685e-09
2.55531e-09
-2.01058e-09
-3.98433e-09
3.4396e-09
-4.29322e-09
2.41874e-10
-7.48988e-11
-4.71645e-10
4.21371e-10
-4.37658e-10
4.87932e-10
-5.38358e-09
5.41616e-09
1.14376e-09
-1.17635e-09
-1.32355e-09
1.62261e-10
1.37282e-09
-2.11532e-10
-5.22552e-09
2.6304e-10
-8.4037e-11
5.04651e-09
4.94807e-09
-4.55466e-09
-1.02777e-09
6.3436e-10
-3.57978e-09
4.78798e-10
-7.54106e-11
3.17639e-09
-5.33559e-09
-7.31761e-10
6.8378e-10
-4.05699e-09
-1.37499e-10
3.03545e-11
4.16413e-09
1.50827e-10
4.36175e-09
-4.34036e-10
-4.07854e-09
3.08879e-09
-9.09495e-10
-6.73427e-09
4.55498e-09
-1.01628e-10
9.36323e-11
-5.72126e-09
8.23461e-09
-1.19516e-10
-2.39384e-09
3.77562e-09
5.82329e-11
-1.97453e-10
-3.6364e-09
1.09454e-11
2.89917e-09
-3.29098e-09
3.80858e-10
1.83939e-10
4.8531e-10
-6.80103e-09
6.13178e-09
4.23907e-09
3.83011e-11
-6.57889e-11
-4.21158e-09
3.44405e-11
-1.4339e-10
-5.16917e-09
5.27812e-09
4.46281e-09
3.18454e-10
4.29977e-11
-4.82426e-09
5.56995e-09
2.45737e-10
-6.5214e-09
7.05706e-10
-3.957e-09
4.11228e-09
-2.40874e-10
8.55987e-11
-7.78211e-09
-4.03808e-09
6.73465e-09
5.08554e-09
5.40006e-09
-1.91697e-10
-5.22224e-09
1.38786e-11
-3.21375e-10
-5.49904e-09
4.85625e-09
9.64156e-10
3.26946e-09
-3.80133e-09
3.18071e-10
2.13804e-10
4.3173e-09
-4.87988e-09
-8.45154e-10
1.40773e-09
-3.68768e-09
3.6217e-09
5.94467e-11
6.53495e-12
4.41278e-09
7.1797e-09
-5.21703e-09
-6.37545e-09
4.43874e-09
-4.38586e-09
-1.70509e-10
1.17623e-10
-4.12617e-09
5.29852e-09
1.92969e-10
-1.36532e-09
-1.11107e-08
-1.7529e-09
5.24928e-09
7.61434e-09
2.47827e-09
-2.40964e-09
-6.86284e-11
-4.2397e-09
-8.49479e-11
2.96737e-11
3.70844e-09
-3.55022e-09
7.81528e-11
-2.36368e-10
-3.42381e-09
-9.11175e-09
2.30684e-09
1.02287e-08
-1.1009e-08
7.52073e-09
4.00034e-09
-5.12088e-10
5.13417e-11
-2.91474e-11
4.41136e-09
-4.98619e-09
5.74835e-10
4.21503e-11
-4.80231e-09
-2.23857e-10
4.98402e-09
-3.77271e-09
3.05717e-10
-9.77037e-11
3.5647e-09
4.42118e-09
3.4521e-11
-1.6955e-11
4.0036e-09
-3.86348e-09
7.68133e-11
-2.16934e-10
-4.08594e-09
4.03622e-09
-6.9623e-11
1.1935e-10
-5.13682e-09
6.48804e-11
9.49844e-10
4.1221e-09
-4.11186e-12
-3.40694e-11
4.15074e-09
-4.74434e-11
-2.63e-10
-3.74655e-09
-5.66767e-10
5.53852e-09
2.01913e-09
-6.99088e-09
-4.94967e-09
4.47269e-09
4.89315e-09
-4.41617e-09
-6.0659e-09
8.26885e-09
2.70256e-09
-4.90551e-09
-4.10401e-09
4.1709e-09
-1.14918e-11
-5.53922e-11
-4.34935e-09
4.27334e-09
-6.42311e-11
1.40242e-10
3.43316e-09
-4.0736e-11
2.06832e-11
-3.41311e-09
-7.03449e-10
-4.64594e-09
8.44945e-10
4.50444e-09
5.54638e-09
-2.95836e-10
9.20467e-11
-5.34259e-09
2.9121e-11
4.67259e-09
-4.82513e-11
-4.65346e-09
-9.62571e-09
6.62162e-09
-7.57781e-09
1.05819e-08
-2.46127e-09
2.6579e-09
-6.57985e-09
6.38321e-09
-2.1242e-10
-2.38955e-09
2.60197e-09
4.36047e-09
-8.11415e-10
-3.76933e-09
2.20274e-10
4.19079e-09
-4.13837e-09
4.26469e-12
-5.66765e-11
5.3753e-09
-5.1792e-09
1.63515e-10
-3.59613e-10
4.54722e-09
-3.99824e-09
-3.54829e-09
7.96657e-10
5.20823e-09
-5.28436e-09
-7.20531e-10
-3.16626e-09
5.14905e-09
3.61081e-09
-5.59361e-09
-3.98536e-09
-8.78999e-11
4.04303e-09
3.02281e-11
-3.96453e-09
4.0844e-09
-2.05042e-10
8.51676e-11
-8.84555e-09
3.47398e-10
2.61283e-09
5.88532e-09
-5.47861e-09
-1.37195e-09
5.87402e-09
3.5184e-09
-4.98954e-13
-3.41937e-09
-9.85398e-11
-4.40285e-10
6.16779e-09
-3.52198e-10
4.49702e-09
-3.41521e-09
-8.7518e-09
7.66999e-09
-3.2918e-10
5.60995e-09
-5.84754e-09
-1.96601e-09
-5.17776e-09
3.28758e-09
3.85619e-09
-4.79818e-09
4.74503e-09
1.26453e-10
-7.33091e-11
-3.44929e-09
3.39634e-09
6.44354e-11
-1.14859e-11
1.58683e-09
-1.74854e-10
3.22531e-09
-4.6373e-09
-4.39107e-09
9.01414e-10
-9.64144e-11
3.58607e-09
2.70441e-09
-7.67747e-09
-9.31948e-10
5.90501e-09
-1.46212e-10
4.57975e-11
-6.07225e-09
-8.99328e-11
1.3793e-09
4.78289e-09
3.68312e-09
-5.48608e-10
1.40337e-10
-3.27485e-09
-3.82827e-09
-2.18609e-10
8.98759e-11
7.39661e-10
-2.06642e-10
4.86704e-09
5.28772e-09
3.80822e-11
-1.56725e-10
-5.16907e-09
-3.56333e-09
-7.37294e-10
1.74451e-10
1.13716e-10
-4.18926e-11
-3.7011e-09
-1.98818e-10
7.16482e-11
-3.74586e-09
6.51111e-11
4.37641e-12
3.67637e-09
-5.92549e-09
4.08868e-09
-1.76443e-09
3.60124e-09
-3.22126e-09
1.95126e-09
1.27e-09
-3.37416e-09
3.98549e-09
-6.587e-09
5.97567e-09
-4.80204e-09
4.9628e-09
4.39138e-09
-4.55214e-09
3.24211e-09
9.78726e-11
-1.87553e-10
-3.15243e-09
-3.87456e-09
-1.82483e-10
9.25159e-11
-1.63518e-09
4.27626e-09
-6.32054e-09
3.67946e-09
-6.27871e-10
-1.06804e-10
7.05838e-11
3.66755e-09
3.84084e-10
-4.17689e-09
1.25252e-10
2.19176e-09
2.43997e-09
-5.31901e-10
-4.09983e-09
-3.60201e-09
3.60644e-09
-1.06905e-11
6.25915e-12
1.05347e-09
9.43067e-10
-6.32493e-09
4.32839e-09
-8.34591e-09
2.79568e-09
7.46025e-09
-2.91216e-09
2.98705e-09
-4.87984e-09
4.80495e-09
-3.55488e-09
3.41965e-09
1.36311e-10
-1.0829e-12
-5.19093e-09
1.81104e-10
-1.21949e-10
5.13177e-09
1.07495e-10
-2.88052e-11
-3.69886e-09
3.62017e-09
-2.20838e-09
2.17727e-09
-2.24838e-09
2.27949e-09
4.22226e-11
-4.60077e-09
-2.27707e-10
4.78626e-09
-7.5663e-09
4.49629e-09
-3.04146e-10
1.60536e-10
-3.0874e-10
-3.62663e-09
3.77484e-09
-3.35814e-09
7.49695e-10
3.75344e-09
-1.145e-09
-6.33244e-09
3.87224e-09
5.1646e-09
3.15797e-11
-1.7599e-09
1.72832e-09
-7.95977e-10
-4.76867e-09
1.38463e-09
4.18002e-09
-3.93902e-09
4.03945e-09
7.08834e-11
-1.71307e-10
-9.7273e-10
3.88435e-09
-2.87679e-09
-3.48337e-11
-3.54335e-09
-4.04205e-11
-1.824e-11
-6.16895e-10
-1.00334e-08
-6.4686e-11
1.78311e-10
-5.19179e-09
5.07817e-09
-5.4921e-09
4.92908e-09
-1.78239e-09
2.34541e-09
-1.45183e-11
1.72035e-09
-1.70583e-09
5.56804e-09
-1.68874e-10
3.60789e-11
-5.43524e-09
3.43383e-09
7.47663e-11
-1.63617e-10
-3.34498e-09
-1.98101e-09
8.92557e-10
4.41693e-09
-3.32848e-09
4.55228e-09
-8.83211e-09
7.34064e-09
-3.0608e-09
-3.61563e-09
4.74109e-11
-1.32883e-10
3.78306e-09
-3.68995e-09
6.41623e-11
-1.57276e-10
4.08284e-09
-4.52785e-09
6.73753e-10
-2.2875e-10
-6.13831e-09
3.07607e-09
-3.22337e-09
6.28562e-09
-5.05909e-09
1.43022e-10
5.34973e-09
-4.33668e-10
-7.0233e-09
2.94506e-09
6.54151e-09
-2.46327e-09
3.61165e-09
-3.52209e-09
6.5966e-11
-1.55529e-10
6.03139e-10
-1.97898e-09
4.35641e-09
-2.98056e-09
-1.82157e-08
1.92963e-11
1.81964e-08
-1.00604e-11
-4.30033e-09
4.36083e-09
-5.04418e-11
1.65837e-09
-7.17659e-09
-1.2223e-09
6.74052e-09
4.91376e-09
5.98408e-09
-4.97969e-09
5.78002e-09
-2.60952e-10
4.8971e-11
-3.06932e-10
-6.38063e-09
-1.31433e-09
8.00189e-09
-3.25271e-09
3.42506e-09
-7.95475e-11
-9.28037e-11
3.5648e-09
-1.31699e-10
-6.35649e-11
-3.36953e-09
3.57931e-11
-1.64142e-09
1.60562e-09
-1.83397e-10
4.91766e-10
3.77447e-09
-1.80993e-09
7.96646e-10
-4.91221e-09
-5.0028e-09
-6.0826e-09
4.94708e-09
-5.63795e-09
1.89196e-09
2.22064e-10
3.52392e-09
-5.28935e-10
5.5463e-09
-5.20906e-09
-5.94665e-09
-1.18276e-09
7.13899e-09
-9.57955e-12
-2.31506e-10
-5.46025e-09
5.52288e-09
-4.12733e-09
4.30306e-09
-3.50353e-10
1.74615e-10
-8.91338e-11
4.02151e-11
5.6566e-09
-2.54154e-09
1.88987e-09
-5.00493e-09
-3.44004e-09
3.36915e-09
-5.27304e-11
1.23617e-10
5.53292e-09
-8.60539e-10
-4.71874e-09
4.6361e-11
-1.67776e-10
7.62733e-11
-2.97325e-09
-1.43112e-08
-2.76628e-09
8.30169e-09
-1.00596e-08
-1.00516e-08
1.18095e-08
2.75701e-09
5.99516e-09
-4.20495e-09
-8.85488e-09
7.32559e-09
9.83098e-09
-2.70451e-09
7.3955e-10
1.96496e-09
3.99274e-09
-2.22898e-09
7.51281e-10
-2.51504e-09
5.23596e-09
-4.25152e-09
-1.85452e-09
8.70078e-10
-7.21871e-09
-9.96212e-10
1.12849e-09
7.08644e-09
-4.28285e-09
4.47043e-09
6.4786e-09
-6.66617e-09
-7.85598e-09
-2.17846e-09
7.57318e-09
-3.69695e-10
6.75011e-10
-7.01193e-09
6.70661e-09
-7.96941e-09
-4.42743e-09
1.28612e-09
-3.62748e-09
3.52026e-09
1.34972e-10
-2.77541e-11
-3.54548e-09
-5.20198e-12
7.33399e-12
2.00123e-09
-1.24937e-08
1.16258e-08
-1.13328e-09
-4.85903e-09
4.4827e-09
-4.60158e-11
4.22345e-10
-5.6784e-10
1.30129e-10
-3.05791e-09
-8.49745e-09
8.5173e-09
3.03807e-09
4.18398e-09
4.87991e-09
-5.97509e-09
3.87589e-09
-3.76532e-09
-1.72538e-10
6.19676e-11
2.92125e-09
2.28579e-09
-1.93758e-09
4.3612e-09
8.51227e-10
-1.21969e-09
-4.39832e-09
2.79913e-09
-2.10744e-10
3.57243e-09
-3.40129e-09
1.57616e-10
-3.28752e-10
-4.60843e-09
4.52909e-09
-1.83673e-10
2.63013e-10
5.36151e-09
-3.07555e-10
-5.14584e-09
9.18863e-11
-9.05511e-09
5.79312e-09
-3.07044e-09
-5.52133e-09
-3.51728e-09
2.7497e-09
6.2889e-09
-6.72323e-09
5.46545e-10
5.77549e-09
4.01197e-10
-3.68135e-09
-1.00185e-10
-1.97912e-11
-4.82248e-09
-4.3988e-10
2.03273e-10
9.83925e-10
-5.20378e-09
4.73248e-09
-5.12629e-10
-5.48513e-09
-2.01991e-09
2.47966e-09
5.02538e-09
-4.37178e-09
5.55951e-10
4.31239e-11
5.36309e-10
-5.07525e-09
4.32681e-09
-6.58648e-10
1.4959e-11
-4.06491e-09
3.70469e-09
-4.01815e-09
4.37837e-09
-3.27338e-10
1.31855e-09
-5.05612e-09
-8.1138e-09
-3.02777e-09
8.08366e-09
2.17661e-09
-2.30684e-09
1.30231e-10
3.00357e-09
-7.49587e-09
-2.53099e-09
4.48943e-09
-3.44187e-10
-4.1553e-09
-4.52959e-09
-2.33704e-10
4.61843e-09
1.44869e-10
1.2393e-08
-1.59593e-08
-7.2991e-09
1.08655e-08
-4.58305e-09
-1.4594e-09
5.83003e-09
-1.79915e-09
6.27562e-09
-5.37106e-10
-5.2505e-09
-9.88432e-10
6.77604e-09
-1.40914e-09
2.03744e-10
-3.18567e-09
-4.28332e-10
-1.05048e-10
6.17346e-11
-3.82096e-09
1.43342e-10
-1.00631e-11
2.76825e-09
-4.39868e-09
-4.96141e-09
6.59184e-09
5.30871e-10
-2.72783e-09
2.19696e-09
-8.11223e-09
3.80822e-09
5.35748e-09
-5.72673e-09
-1.55693e-08
6.83232e-09
1.44637e-08
1.16744e-10
2.05986e-09
4.33461e-09
-3.93302e-09
1.97307e-10
-5.9889e-10
4.65714e-09
-4.75759e-09
-3.63043e-09
3.73088e-09
1.34859e-08
-1.45348e-08
7.40211e-09
-6.35327e-09
-1.56509e-10
4.70375e-11
1.36488e-09
1.32112e-08
-1.3838e-08
-7.38125e-10
-1.15678e-09
-3.0232e-09
1.35672e-10
3.66706e-09
-3.56666e-09
-1.60063e-10
5.96687e-11
6.88599e-09
-5.45376e-09
-4.49744e-09
3.0652e-09
5.92609e-11
1.69565e-11
-1.74375e-09
2.31101e-10
-4.5596e-09
-4.04699e-09
3.13833e-10
4.33629e-09
-5.48677e-09
3.9833e-10
-8.99629e-11
5.1784e-09
-4.17346e-09
1.55199e-10
-6.76847e-11
3.83665e-09
-4.28297e-09
-2.26951e-10
6.73272e-10
-4.70916e-09
-2.08044e-09
4.7128e-09
2.0768e-09
-5.99011e-10
-4.70649e-09
4.78994e-09
5.15559e-10
5.4037e-09
3.52937e-10
-1.00799e-09
-4.74864e-09
-4.16115e-09
9.83317e-10
-1.22042e-09
4.39825e-09
-2.37154e-09
3.25327e-09
-8.81729e-10
-5.5373e-09
-4.40175e-09
3.66783e-09
6.27122e-09
-4.30245e-09
5.58395e-10
-5.56271e-10
2.07628e-10
-3.73031e-09
-3.22003e-11
2.32828e-09
-5.38666e-09
-1.33994e-09
3.15193e-09
-1.51421e-10
-3.04465e-09
4.41435e-11
-3.83372e-09
-7.09958e-10
1.26891e-09
3.27477e-09
-4.92225e-11
-1.21551e-11
5.18551e-09
-4.27143e-09
2.6436e-09
-3.55768e-09
3.62161e-10
-7.37463e-11
3.95065e-09
-1.07708e-08
3.03155e-09
7.77725e-09
-3.79791e-11
3.41062e-09
-1.31559e-10
-3.32767e-09
4.86091e-11
1.0225e-09
-1.00625e-08
8.07594e-09
4.73567e-09
-1.519e-10
6.80278e-11
-4.6518e-09
-5.30391e-09
-1.47209e-10
3.63517e-10
5.08761e-09
-3.20007e-09
-5.68092e-09
6.56882e-09
2.31217e-09
-7.68635e-09
-9.38854e-09
-3.46078e-09
-6.46359e-12
1.79529e-11
-1.95299e-08
1.60524e-08
-2.24926e-09
-3.98592e-09
-2.74077e-10
1.32674e-10
3.34456e-09
-3.47526e-09
1.05003e-09
-9.19322e-10
6.66155e-10
-1.1204e-09
5.94548e-09
-5.49124e-09
4.01601e-11
-6.90228e-11
3.80449e-09
2.08648e-09
-4.45398e-09
-6.47805e-09
-1.11884e-08
-3.26109e-09
1.14763e-08
-1.99508e-09
2.74373e-10
1.7207e-09
-5.34816e-09
5.38186e-09
1.94423e-10
-2.28125e-10
-1.35083e-10
1.48041e-09
3.95319e-09
-4.07715e-11
-3.44524e-09
4.59721e-11
-5.32098e-09
-2.39784e-10
2.12611e-10
-5.9e-09
6.01238e-09
-7.89449e-09
1.63336e-10
-6.34497e-11
-1.30131e-10
1.35362e-10
4.71083e-09
-4.71606e-09
-8.0493e-09
-6.93853e-09
5.36212e-09
-2.48122e-10
-5.26127e-09
9.44928e-10
4.56446e-09
3.17522e-09
-5.0434e-09
3.45501e-09
-1.82321e-10
-3.66093e-09
5.35243e-10
3.30801e-09
-3.76111e-09
5.89377e-09
-5.33273e-09
-3.2605e-10
-2.26085e-09
2.5869e-09
-2.33448e-10
9.28207e-11
-2.87704e-10
8.96942e-09
1.13144e-09
-1.18538e-08
4.29472e-09
-2.7678e-09
-7.06422e-09
3.35329e-09
-1.87936e-09
3.47414e-09
-1.08798e-09
4.39191e-09
-5.95394e-09
4.69128e-09
6.21374e-10
6.41277e-10
5.85501e-09
5.72018e-09
-6.38968e-09
2.03091e-09
-3.7476e-10
-4.74658e-09
3.09043e-09
8.08725e-09
5.80913e-10
3.01256e-10
-2.04776e-09
2.04365e-09
-4.26221e-09
2.27631e-09
-9.26268e-10
3.05905e-09
-5.20449e-09
4.19075e-09
-2.04531e-09
-5.34664e-09
-1.51126e-10
5.33732e-09
1.60452e-10
-3.59744e-09
-3.18723e-11
5.66676e-11
3.57265e-09
2.49139e-09
-2.58132e-09
-4.87708e-09
1.61087e-09
6.25326e-09
-1.28903e-08
-8.65502e-09
7.48e-09
1.40654e-08
-5.28922e-09
5.19894e-09
1.38139e-10
-4.78532e-11
-4.51137e-09
7.59285e-09
4.12443e-09
-7.20592e-09
1.47363e-09
-1.53608e-09
9.21938e-10
-6.67779e-10
-1.71645e-08
1.89268e-08
-7.13106e-09
5.36875e-09
-1.17564e-09
-6.38574e-11
-1.26924e-08
1.39319e-08
1.6231e-09
6.45034e-09
-5.53399e-09
-2.53944e-09
4.37461e-09
-1.11358e-09
7.22936e-10
-3.98397e-09
6.64723e-11
-1.64736e-10
-6.90708e-09
-8.0425e-09
7.03647e-09
7.91311e-09
-2.43139e-10
8.81003e-11
2.60319e-09
-1.48687e-09
2.86382e-09
-3.98014e-09
-3.85666e-09
-1.35978e-10
1.71678e-10
-2.89534e-09
6.92313e-09
1.62881e-09
-3.76152e-10
3.38144e-10
-2.03414e-10
2.41422e-10
4.17142e-09
-5.16092e-09
3.75775e-09
-3.66744e-10
-5.31224e-09
4.95846e-09
-1.01039e-09
-4.55336e-09
4.70321e-09
-5.1489e-10
-4.46039e-09
-2.03928e-10
-1.79351e-08
-5.92659e-10
2.06531e-10
1.83212e-08
4.39853e-10
-6.53583e-09
-6.82088e-09
-3.28155e-09
3.20293e-09
-6.76098e-11
1.46231e-10
1.17145e-10
3.3152e-09
-3.60072e-11
-2.28116e-09
2.09639e-09
1.79894e-08
-1.78046e-08
3.17624e-11
-3.24946e-09
7.88876e-10
2.42882e-09
1.91427e-09
-3.53385e-09
5.29572e-09
-3.67614e-09
-8.49123e-10
1.75535e-09
-3.26291e-09
2.35668e-09
-5.77647e-10
1.76597e-09
6.93225e-09
-2.71149e-09
-5.98673e-09
-5.7727e-09
3.32119e-09
-3.49943e-09
3.4798e-09
-4.62641e-11
6.58962e-11
-1.12136e-09
-4.22717e-09
2.36082e-10
5.11246e-09
4.95068e-09
2.88168e-09
-2.53547e-10
5.521e-09
1.3454e-10
-5.40199e-09
1.98573e-09
-1.94743e-09
-3.20149e-10
-4.79184e-09
3.51712e-10
4.76027e-09
6.5524e-10
-5.24961e-09
2.13853e-10
-2.85228e-10
2.75199e-09
-8.03793e-10
2.43565e-10
1.79772e-09
-1.75676e-09
-4.09513e-11
1.97604e-10
4.4805e-09
5.75646e-11
3.39674e-09
-3.27717e-09
-5.08325e-11
-6.8734e-11
-5.94763e-09
4.85369e-09
-1.38912e-10
1.23284e-09
1.66416e-10
-4.19264e-10
-4.99676e-09
3.19965e-09
-1.63029e-09
-6.4492e-09
-4.73799e-09
-5.58653e-09
5.11449e-09
5.21003e-09
-4.86069e-09
1.41545e-10
-1.22848e-09
-4.23551e-09
4.10692e-09
2.30717e-10
-1.02119e-10
-1.20414e-08
1.33067e-08
-1.26525e-09
5.69539e-09
-6.88612e-09
6.75841e-10
-2.25302e-08
1.58371e-08
-1.15225e-08
5.33549e-10
-5.55667e-09
1.01479e-10
4.92165e-09
1.27402e-08
-1.22695e-08
2.24452e-09
-2.71522e-09
1.41574e-11
-5.14411e-09
1.0621e-10
5.02374e-09
4.49923e-09
-1.65847e-09
-4.45264e-09
1.61188e-09
4.49512e-09
-9.17641e-10
-5.55646e-09
8.50112e-10
-6.06397e-09
2.2933e-11
2.45255e-10
-4.36402e-09
5.68326e-10
-9.77716e-10
-2.94875e-09
-4.86612e-09
-5.39917e-10
4.80702e-09
-2.75871e-10
-5.34249e-09
2.71717e-10
-1.41063e-10
-3.48293e-09
5.73309e-11
2.58995e-09
2.44096e-09
-1.32623e-09
3.5674e-09
-4.16888e-09
-5.13669e-11
6.52843e-10
-7.0187e-11
3.59262e-09
4.23593e-11
-5.09441e-09
4.518e-09
4.5893e-10
1.17477e-10
2.07605e-09
-2.1235e-09
-5.9367e-09
2.38213e-09
-7.36492e-10
4.29106e-09
3.61848e-09
-4.09665e-09
1.26257e-10
3.51916e-10
3.76358e-09
-9.0105e-10
-2.86253e-09
5.7528e-09
3.9267e-09
-5.38477e-09
3.48483e-09
-2.59715e-09
1.66763e-09
-1.45284e-10
6.69851e-11
4.28066e-09
-4.85428e-09
-5.80097e-10
1.05237e-09
3.0595e-09
-3.53178e-09
-1.53528e-09
2.09438e-09
-2.51995e-09
1.96085e-09
1.09276e-09
-1.83475e-09
6.37459e-09
-5.6326e-09
1.48535e-11
-3.58905e-11
5.73759e-09
-6.07268e-09
-6.57199e-09
-1.60136e-09
4.83435e-09
1.12341e-09
-6.1523e-10
2.16336e-10
-3.97798e-11
4.38674e-10
-4.07543e-09
2.25504e-09
-1.45609e-10
-3.94984e-10
-5.02004e-09
1.29667e-10
5.28536e-09
2.04291e-09
-2.61791e-09
5.82427e-09
4.0621e-09
-2.79089e-09
2.84473e-09
-4.11593e-09
3.96422e-09
9.53239e-11
-1.56866e-09
-2.49088e-09
-2.68299e-09
1.91771e-10
-2.11508e-09
-3.86746e-09
5.67356e-09
3.08988e-10
-9.77117e-10
5.59718e-09
5.3079e-10
-5.15086e-09
1.26418e-09
-6.18193e-09
6.38561e-09
-1.46787e-09
3.30636e-09
-4.12604e-10
-5.68998e-09
-7.77401e-09
2.69318e-09
-7.32535e-10
1.00719e-10
-5.30489e-09
4.32703e-09
-4.21116e-09
-2.42193e-10
1.26324e-10
-3.6909e-10
-4.65865e-09
2.05262e-10
-4.63751e-09
-1.39233e-09
-6.92452e-09
-2.06005e-09
3.2946e-09
-6.07653e-10
4.65142e-09
3.17857e-10
-4.36163e-09
1.27532e-10
3.15093e-09
-3.27846e-09
-4.36429e-09
4.15835e-09
6.25382e-10
-4.19442e-10
-7.92776e-10
-4.75924e-09
5.11213e-09
-4.58432e-09
-5.57829e-10
2.81463e-10
-4.34322e-10
5.039e-09
-5.05614e-09
4.51455e-10
-6.54768e-09
4.82931e-09
-4.87179e-09
2.94782e-10
-2.52303e-10
-3.92009e-09
1.61244e-10
-5.19565e-11
3.81081e-09
-6.08384e-10
3.22083e-10
-4.43244e-09
-6.81123e-09
6.68923e-09
-2.47696e-10
-6.13991e-12
1.80385e-09
-7.48748e-10
-2.16198e-11
7.63885e-10
-1.26093e-09
4.93017e-09
3.00529e-09
-6.67453e-09
1.45869e-10
-5.82691e-11
5.38063e-09
-4.25037e-11
2.33815e-11
-7.51944e-09
2.57895e-09
-2.47634e-10
5.18812e-09
3.81139e-10
-2.38971e-10
-5.1832e-10
4.8496e-10
2.04427e-09
-2.59054e-09
6.13092e-11
1.34985e-10
-1.20995e-10
-5.3179e-09
-4.77234e-09
-1.8256e-09
3.68074e-09
2.91721e-09
-9.20685e-10
3.25698e-09
-3.96884e-09
-3.05871e-09
-4.7544e-09
4.08913e-10
3.77033e-09
-3.59793e-09
4.24038e-09
-2.47174e-10
-3.84877e-09
1.10017e-10
-6.47357e-09
2.32276e-09
4.82582e-09
-4.6563e-10
2.09606e-10
-3.79392e-09
1.42526e-10
-5.17322e-11
5.76461e-09
-3.22169e-09
1.18796e-09
7.71763e-10
5.70037e-09
-9.3242e-10
-5.53971e-09
-3.96545e-09
4.94126e-09
-2.29998e-10
3.78332e-09
9.2166e-09
-4.51894e-09
-9.52817e-09
8.40457e-09
2.14609e-09
-1.72556e-08
-3.36771e-09
6.85489e-09
1.37684e-08
-4.76447e-10
7.12053e-10
-4.59989e-09
7.0642e-09
-7.16058e-09
3.09995e-09
7.36409e-09
5.87002e-09
-6.61249e-09
9.71627e-10
-1.16996e-09
4.69757e-09
-5.7575e-11
4.37733e-11
-1.25241e-09
-4.57544e-09
-4.80983e-09
2.95241e-09
4.69067e-09
-2.83324e-09
5.75603e-09
-2.61074e-09
-2.72991e-11
-3.11799e-09
3.906e-11
-5.32309e-09
6.93467e-09
-5.29535e-09
-9.37779e-11
-1.54555e-09
3.69274e-09
-1.33689e-09
-3.51263e-09
6.4099e-09
-6.92919e-09
5.46058e-10
-2.67699e-11
3.07142e-09
-2.06167e-09
-8.21591e-09
3.75159e-09
-1.38756e-09
1.10352e-09
-1.14723e-09
4.42413e-09
-9.75046e-09
2.79925e-10
4.43462e-09
-4.5712e-09
-6.94759e-09
6.99868e-10
5.0084e-09
1.23933e-09
7.31763e-10
-4.97895e-09
-9.30578e-10
-4.17256e-09
-1.31574e-11
2.88861e-11
4.15683e-09
3.78397e-09
-7.20365e-09
1.93282e-09
5.73615e-09
3.66821e-10
-5.7614e-09
5.67257e-09
4.6411e-09
5.60014e-09
-9.04153e-10
-4.56845e-09
1.61972e-09
-1.74796e-09
1.28243e-10
1.85186e-10
-2.22407e-11
-4.0196e-09
-3.27105e-10
-2.81484e-10
2.15753e-10
2.32691e-09
-2.39938e-09
7.24772e-11
-4.20809e-09
4.96825e-11
-4.48699e-09
4.48896e-09
-1.09285e-10
1.07309e-10
2.31438e-10
2.91949e-09
-2.38293e-10
2.51704e-09
-3.61564e-09
7.39986e-09
4.184e-09
-7.04633e-09
-4.53754e-09
-1.32568e-09
7.37758e-09
-6.0872e-10
-1.41243e-08
2.08283e-09
3.09399e-10
-8.78248e-09
1.5439e-09
-2.83313e-10
2.88172e-10
4.68788e-09
-4.69274e-09
8.67908e-10
-7.20416e-09
1.21913e-08
-7.20706e-09
6.7569e-09
5.15818e-10
3.40254e-09
-3.86856e-09
-4.97989e-11
-2.35073e-10
-4.6321e-09
4.07209e-10
4.45996e-09
4.82163e-11
3.69356e-09
-3.59095e-09
-3.85814e-12
-4.43694e-11
1.43931e-09
-2.12273e-09
6.83411e-10
-4.81066e-09
4.79756e-09
-4.78894e-09
2.59603e-10
-4.6919e-09
-1.76139e-10
-2.49031e-11
3.73736e-09
-3.86361e-09
1.5115e-10
3.55931e-09
-2.65006e-11
-3.57181e-09
-1.60583e-10
1.78027e-10
4.83625e-09
-4.32877e-09
7.50257e-10
-1.89512e-09
5.47363e-09
-1.13067e-08
1.5272e-09
-3.39631e-10
1.01192e-08
-1.03047e-09
-5.08806e-09
5.79739e-09
4.21921e-09
-2.86419e-09
-7.1524e-09
4.76877e-09
-6.95752e-09
-1.55581e-10
1.16645e-09
-5.48199e-09
-1.49306e-08
8.82709e-10
1.0059e-09
-1.31339e-09
4.66869e-09
-1.63673e-09
-8.72493e-10
2.17797e-09
3.3126e-10
-6.06858e-10
5.11508e-09
-5.53869e-09
1.62087e-09
-1.42327e-09
-3.93822e-10
-7.76534e-09
-4.77057e-09
-2.23145e-11
4.70498e-09
-2.31152e-09
6.25287e-09
9.83217e-10
-4.92457e-09
4.29758e-09
-1.3963e-09
3.04482e-09
-5.94609e-09
-5.69635e-09
-1.131e-08
8.957e-09
1.49993e-09
5.14786e-09
-7.38822e-09
2.80997e-09
-3.93131e-10
-1.85037e-09
-4.96015e-09
-3.04557e-09
-1.15807e-08
6.65681e-09
1.93884e-10
3.99468e-09
-8.16488e-11
8.07075e-11
-1.8508e-11
-3.09293e-09
2.91599e-09
-9.96391e-11
2.76586e-10
1.1656e-08
3.42458e-10
-9.61271e-09
-2.38574e-09
3.6215e-09
-4.75017e-09
-3.30731e-10
-9.60277e-10
-7.09876e-09
6.70812e-10
-7.00552e-09
-2.79686e-10
-4.86134e-10
-3.22663e-10
7.03749e-10
7.73801e-11
3.37571e-09
-4.20948e-09
3.71851e-09
-3.85458e-09
3.3544e-09
-3.46866e-09
1.33971e-09
-1.19752e-08
-6.71302e-10
-5.7792e-09
3.14373e-10
4.13915e-09
3.52477e-09
-4.1562e-09
5.08066e-09
5.13658e-09
3.95449e-09
-3.39224e-10
-5.31966e-09
5.40534e-09
-4.86396e-09
6.90463e-09
5.62993e-09
-5.81825e-09
5.92446e-09
4.85178e-09
-5.13995e-09
1.78811e-09
-5.86109e-10
3.78058e-09
3.77957e-10
-1.24252e-09
4.55259e-09
-5.88865e-09
4.60682e-09
9.90721e-11
2.31325e-09
-2.38764e-09
7.43823e-11
-5.29044e-09
5.26993e-09
1.06769e-10
-8.62631e-11
4.55969e-09
-4.71883e-09
4.39063e-10
-4.41488e-09
-1.01364e-08
-2.65162e-09
7.04986e-10
4.87636e-09
-4.73814e-09
-2.52093e-09
2.38272e-09
1.13386e-10
-6.04922e-09
5.60825e-09
3.27593e-10
-1.41541e-10
-7.06351e-09
4.86224e-09
2.54118e-09
-5.41233e-09
7.83391e-10
-3.3063e-09
2.87963e-09
-7.00847e-09
-8.25117e-09
1.78662e-10
8.32702e-09
-2.54507e-10
-3.63153e-11
-4.29459e-09
1.2282e-10
1.34056e-08
4.3689e-09
-4.28861e-09
-2.36788e-10
-4.45995e-09
4.54213e-09
1.54607e-10
5.03178e-09
5.9927e-10
-5.91437e-09
-5.43241e-09
-3.54485e-10
-5.29953e-09
-8.11178e-10
6.90735e-09
-5.16555e-09
5.15734e-09
-1.24737e-10
1.32947e-10
-9.74688e-10
4.78405e-09
1.04242e-09
-2.42055e-09
-6.32092e-09
5.3192e-09
3.42227e-09
-5.55037e-09
2.82361e-09
4.6263e-09
-1.89954e-09
-5.04941e-09
4.92371e-09
-1.9568e-10
-3.38291e-09
-7.92246e-09
3.61902e-09
-1.75653e-09
7.39027e-09
1.54596e-09
-2.51923e-11
-1.29375e-11
5.27534e-09
-4.06255e-10
-5.47594e-09
-4.12283e-10
4.73853e-10
4.63811e-09
-4.69968e-09
7.22376e-09
-5.98003e-09
7.97287e-09
-5.22774e-10
-8.57245e-09
2.38783e-10
-3.91573e-10
-4.43153e-09
-3.79171e-10
4.64865e-09
-4.68176e-09
1.03033e-08
-7.86378e-09
-2.43954e-09
-8.90881e-10
4.84495e-09
-4.5119e-09
4.35061e-09
-6.76799e-11
4.85373e-09
-4.84173e-09
8.05077e-12
-2.00433e-11
-1.54073e-10
2.26782e-10
9.46528e-10
-4.07989e-09
-7.57644e-10
3.89101e-09
3.26733e-09
1.76073e-09
4.45306e-09
-3.59547e-09
9.6873e-09
-1.1606e-08
-3.07779e-09
4.99648e-09
-7.8899e-10
-9.0949e-09
4.39271e-09
-3.89879e-09
3.57301e-10
4.82129e-09
2.35681e-10
-2.05691e-09
8.0302e-09
-1.00114e-08
4.54302e-10
4.94431e-09
-3.51998e-10
-7.93612e-09
-2.99951e-09
4.72251e-09
-8.57084e-11
-5.35528e-09
1.74854e-10
4.1367e-09
4.13903e-09
-2.33086e-09
-5.94487e-09
-2.73474e-10
3.83264e-10
-4.6195e-10
8.29212e-10
4.72749e-09
-5.09476e-09
-2.36229e-09
-6.35434e-09
-4.65103e-09
4.46724e-10
-2.38689e-10
4.44299e-09
4.48768e-09
-1.74448e-09
-3.01312e-09
2.69916e-10
-4.9067e-09
-3.79108e-09
4.93667e-09
-4.61225e-09
3.92924e-10
4.69256e-09
-4.73234e-10
3.30888e-09
7.85735e-10
-4.4142e-09
3.19584e-10
4.81988e-09
-3.30489e-09
3.42679e-09
-4.94178e-09
-1.76365e-08
1.90224e-08
-1.38592e-09
3.3387e-09
-3.89742e-09
3.37407e-09
-2.81535e-09
9.17225e-11
-3.21107e-11
-4.52438e-09
-5.61366e-10
4.73501e-10
3.29328e-09
2.6272e-09
-3.03879e-09
-3.18878e-10
-4.85701e-09
4.57055e-10
5.29943e-09
-6.78665e-09
2.31281e-09
-8.25588e-10
-8.00718e-09
-3.07838e-09
5.8884e-09
5.19716e-09
-8.47379e-09
-5.84342e-09
6.31003e-09
-8.20795e-09
-7.08985e-09
6.82401e-09
2.42783e-09
-5.121e-09
-1.70857e-09
3.86453e-10
-8.77717e-10
-8.44327e-09
7.27179e-09
5.21928e-09
7.30462e-11
1.53296e-09
3.87985e-09
-5.48063e-09
3.42393e-09
9.15624e-10
1.14108e-09
-1.21614e-09
-4.10856e-09
2.07374e-09
3.25096e-09
-3.41029e-09
4.91012e-09
1.55388e-10
4.25606e-09
-6.08421e-11
-2.08286e-10
4.72279e-09
4.50761e-09
-4.60658e-09
4.53264e-09
-8.66483e-11
-2.39454e-10
7.28651e-11
6.98162e-09
-2.22894e-11
2.08199e-10
9.43047e-10
4.86368e-09
-5.06966e-11
8.71311e-09
-9.33819e-09
-1.00456e-08
-1.284e-09
-4.18404e-09
2.35341e-09
-4.67418e-09
-3.8248e-10
4.26069e-09
-9.35261e-10
-4.27527e-09
6.86148e-10
2.44614e-09
-2.8259e-09
2.71032e-10
-1.98977e-10
-4.72651e-09
3.29849e-10
4.77478e-09
-3.78119e-10
-2.04303e-09
1.73285e-09
3.79502e-09
6.63484e-10
-1.19532e-08
-3.16326e-10
8.04703e-09
3.60144e-09
-4.00555e-09
5.28047e-09
1.25305e-09
3.71417e-09
-2.44717e-10
-2.21718e-09
2.25806e-09
-4.08752e-11
-1.82907e-09
1.95189e-09
1.45517e-10
-1.08796e-09
1.16036e-09
-2.17918e-10
-3.76946e-10
-4.70621e-09
3.56644e-10
1.84324e-08
2.96678e-09
-2.68584e-09
-4.78506e-09
2.6073e-10
4.85418e-09
4.64044e-09
5.50821e-10
4.08308e-09
-1.11134e-11
-1.48135e-09
-4.61936e-09
8.04742e-10
5.29597e-09
3.86826e-10
4.76852e-10
-3.02651e-09
2.16283e-09
5.63685e-09
3.66479e-09
-4.43939e-09
6.74145e-09
-5.19257e-09
1.63892e-10
3.81343e-09
-3.68915e-09
-3.39852e-09
-8.07575e-09
7.95699e-09
4.55645e-09
6.37874e-12
-4.4203e-09
-2.37381e-09
1.47663e-08
2.98487e-09
6.47051e-10
4.56058e-09
-4.73378e-09
5.20063e-09
3.19704e-10
-5.33535e-09
-4.76002e-09
6.13064e-11
-2.1087e-09
-1.24055e-08
2.19084e-09
1.23233e-08
-1.9947e-09
5.92236e-09
-4.49136e-09
5.63702e-10
6.05654e-09
-5.74135e-09
-3.15192e-10
-6.41682e-09
5.7172e-09
-5.80837e-10
1.28045e-09
6.98715e-09
-4.145e-09
-6.25244e-09
-1.00273e-08
4.81147e-09
-3.75249e-09
-7.84194e-09
1.99957e-10
-4.87559e-09
-1.05906e-10
4.78153e-09
-1.10641e-09
-3.58273e-09
7.74819e-09
1.91226e-10
-5.5688e-09
6.4763e-10
-3.23156e-09
4.27108e-09
2.1946e-10
-4.27148e-09
-2.19059e-10
6.27254e-09
-1.57572e-09
-4.03516e-09
-6.61671e-10
5.4509e-09
-5.9164e-09
-1.95505e-09
-4.49007e-09
-9.84684e-11
5.89408e-11
4.13389e-09
-1.56739e-09
-4.37977e-09
1.81327e-09
1.15699e-09
-7.03402e-09
-6.56184e-09
8.07286e-09
1.78357e-09
-4.62742e-09
4.88869e-09
-6.16366e-10
3.551e-10
4.23656e-09
-4.22561e-09
2.44341e-10
-2.55292e-10
2.31236e-09
4.05292e-09
-9.27332e-11
2.33041e-10
4.38852e-09
3.48085e-11
-4.54931e-09
4.2808e-09
8.86155e-09
-2.24811e-09
1.1819e-08
-4.64909e-09
-2.66978e-09
-8.12508e-10
2.99026e-09
4.92029e-10
-6.92351e-09
4.33621e-09
1.66661e-09
2.36212e-10
2.39019e-09
-5.18326e-10
-2.10808e-09
3.41829e-09
-7.14907e-09
-5.43637e-09
5.65901e-09
-4.19472e-10
3.91632e-10
-5.63117e-09
-4.21747e-10
5.28395e-09
-5.26845e-09
-3.48032e-09
-1.17158e-09
-1.13619e-11
1.02581e-11
6.62603e-09
-5.69488e-10
5.82865e-09
-4.17596e-09
-9.0243e-10
1.81362e-10
4.43399e-09
2.76161e-09
-4.09736e-09
4.95246e-09
-5.63654e-09
4.2734e-09
-4.28997e-09
5.38869e-09
1.94097e-10
-4.11182e-09
9.30961e-11
-1.92437e-10
4.46338e-09
-4.3105e-09
3.29622e-10
-4.82498e-10
-8.71171e-09
2.00181e-10
4.31271e-09
-4.32058e-09
-1.92309e-10
-4.50238e-09
4.09101e-09
5.24032e-10
-1.12662e-10
-4.77691e-09
4.34977e-09
4.54634e-09
2.75464e-10
1.32866e-12
-2.89468e-11
4.33999e-09
4.68385e-09
-4.60666e-09
3.15739e-10
-2.58615e-09
-1.82505e-09
3.9413e-11
-1.5627e-08
-1.00018e-08
4.65465e-09
1.44512e-09
-1.27264e-09
-4.82713e-09
-4.95278e-09
5.28654e-09
-8.28522e-09
5.14351e-09
-5.2505e-09
-3.92428e-10
4.99417e-10
-2.61641e-10
-5.34905e-09
5.37091e-09
-4.97429e-10
-1.00942e-08
-5.30376e-09
1.51179e-09
5.03057e-09
-1.2386e-09
6.91895e-10
-3.41973e-09
-2.66556e-10
-4.28473e-09
4.30577e-09
2.45523e-10
-3.8645e-09
-2.84738e-09
-5.51975e-09
5.13739e-10
-4.28994e-09
1.71761e-09
-4.00372e-10
2.9727e-09
-2.57579e-10
5.10789e-11
-5.60502e-09
-3.64614e-09
-8.89836e-10
4.60922e-09
-6.63232e-09
-4.41252e-09
5.00977e-10
2.9676e-09
9.43949e-10
-1.35217e-08
2.10396e-09
7.01473e-09
4.40296e-09
1.67431e-08
-9.47473e-10
1.02547e-09
6.75203e-11
5.16177e-11
4.5539e-10
-1.77563e-10
-2.77827e-10
4.95232e-09
-2.04729e-11
2.11663e-10
-3.02751e-09
-1.19993e-10
-4.70917e-09
-3.63136e-11
-4.64059e-09
8.3846e-11
-5.28573e-09
1.07259e-10
-5.56132e-11
6.68054e-09
-1.32444e-09
3.2594e-11
-1.51697e-09
-4.54639e-09
4.00793e-10
5.66257e-09
5.1218e-09
2.85087e-09
4.60314e-10
-4.78198e-09
1.55833e-10
-2.02835e-10
8.38998e-10
-7.91996e-10
2.81654e-10
-4.43947e-09
4.32379e-09
-1.65969e-10
7.7177e-10
3.72883e-10
-1.14465e-09
-6.99718e-10
1.77038e-09
-4.61665e-09
4.53527e-09
-1.68899e-09
1.74402e-10
4.49175e-09
-1.1981e-10
3.03059e-09
6.97866e-09
5.05845e-09
-5.39117e-09
6.52423e-10
3.15185e-10
-3.54188e-10
3.54352e-10
-2.80482e-10
4.85626e-09
-4.93013e-09
3.99718e-09
-3.24748e-09
-1.22655e-09
2.00467e-09
1.70883e-09
4.42543e-09
-5.71721e-09
-4.17049e-10
5.69003e-09