/*--------------------------------*- C++ -*----------------------------------*\
  =========                 |
  \\      /  F ield         | OpenFOAM: The Open Source CFD Toolbox
   \\    /   O peration     | Website:  https://openfoam.org
    \\  /    A nd           | Version:  7
     \\/     M anipulation  |
\*---------------------------------------------------------------------------*/
FoamFile
{
    version     2.0;
    format      ascii;
    class       surfaceScalarField;
    location    "51";
    object      phi;
}
// * * * * * * * * * * * * * * * * * * * * * * * * * * * * * * * * * * * * * //

dimensions      [0 3 -1 0 0 0 0];

internalField   nonuniform List<scalar> 
1111
(
6.42139e-09
1.32391e-08
-1.57838e-08
-3.87671e-09
6.51306e-09
-1.17821e-08
1.16905e-08
-1.47197e-08
5.0229e-09
9.36285e-09
3.33926e-10
4.32215e-10
-5.07548e-10
-1.41853e-08
1.42607e-08
-1.40895e-08
1.38415e-08
6.80259e-10
-1.62646e-09
1.48767e-08
2.17831e-09
-3.86887e-09
9.75092e-09
-1.06976e-08
4.81552e-09
-6.68412e-09
-1.26163e-08
1.25799e-08
6.72055e-09
-5.05063e-08
-2.58893e-08
7.63956e-08
-8.1055e-09
7.57215e-09
7.0464e-09
3.57929e-09
3.44938e-10
-3.65751e-09
-2.66725e-10
1.56048e-08
-1.5875e-08
-2.3002e-08
2.32722e-08
-9.62753e-09
-7.94241e-09
8.78714e-09
8.7828e-09
-3.52248e-08
1.75776e-08
-3.23418e-08
4.99891e-08
9.53515e-09
-1.94e-09
-1.42793e-08
-1.93883e-09
2.58097e-09
-3.7506e-09
3.10845e-09
-3.73657e-09
1.32754e-08
1.94321e-09
-1.1482e-08
8.85204e-09
-2.35204e-09
-1.50334e-08
8.53342e-09
3.7737e-08
-3.05938e-08
-7.14319e-09
-1.93355e-08
1.02282e-10
1.74518e-08
1.78144e-09
-7.35881e-10
4.03708e-09
-1.79001e-08
1.45989e-08
-6.1217e-08
-3.96288e-09
6.51799e-08
1.63786e-10
-1.31036e-09
-3.68976e-10
1.51555e-09
-1.32036e-09
-1.3505e-08
-1.83392e-10
-3.24779e-10
2.88447e-10
2.19723e-10
-1.00833e-08
-8.16718e-09
1.25316e-08
5.71883e-09
7.35261e-10
-2.15315e-09
-8.46455e-09
9.88244e-09
8.0004e-09
9.55016e-10
-8.8931e-09
-6.23212e-11
-2.83956e-09
-7.8227e-09
1.08778e-08
-2.15511e-10
1.13646e-08
-5.64243e-10
-1.94833e-09
-1.00379e-09
9.81928e-10
7.95057e-11
-5.76457e-11
-2.91922e-10
8.7692e-10
4.51459e-10
-1.03646e-09
-6.03931e-10
-4.18683e-11
6.43399e-10
2.39982e-12
1.58705e-11
-1.01817e-09
9.83106e-11
9.03984e-10
-5.45026e-11
-9.33416e-10
7.81734e-10
-1.84058e-08
-1.71141e-09
-5.14007e-10
5.61319e-11
-1.46056e-10
1.34129e-08
-1.32808e-08
3.90504e-09
-4.29701e-10
6.40984e-10
4.0719e-10
-6.18473e-10
-4.3019e-10
-2.32285e-09
1.78502e-09
9.68023e-10
-2.14502e-09
9.65703e-09
-1.13809e-08
-3.86087e-10
-1.99369e-10
7.14494e-11
-8.80062e-09
1.01338e-08
-9.43863e-09
1.19787e-08
-1.70359e-08
4.98782e-09
6.93665e-11
8.92767e-11
-2.09423e-10
-2.6594e-10
2.60612e-10
8.97311e-10
-1.75995e-10
-5.96523e-08
7.43173e-08
-1.4665e-08
1.14429e-09
-3.56348e-10
-1.31599e-09
5.28043e-10
1.10441e-09
1.03112e-08
-1.37295e-08
2.31394e-09
-9.55558e-10
7.058e-09
-8.52644e-09
2.424e-09
-6.49209e-09
5.77695e-09
5.49997e-09
-4.78482e-09
-7.15701e-09
-2.1869e-09
2.09545e-09
7.24846e-09
-1.82712e-10
-9.09224e-08
9.13078e-08
-2.02727e-10
-2.56083e-10
-8.97627e-08
9.01698e-08
-1.51016e-10
8.30903e-08
-1.50083e-09
1.16516e-10
-8.17059e-08
-3.15544e-09
-1.99624e-10
8.00171e-10
9.1598e-10
-5.7186e-10
4.02598e-09
-1.63896e-09
3.29784e-09
-5.68487e-09
-1.09983e-09
1.00409e-09
-1.49799e-08
6.61491e-09
9.32278e-09
9.86751e-10
-1.00215e-08
-2.88035e-10
-6.28569e-09
1.29638e-08
1.4145e-09
-8.09263e-09
1.43093e-08
-4.14271e-09
3.33925e-09
-1.35059e-08
1.54238e-08
1.73708e-09
-1.73213e-09
-5.4246e-10
-1.99149e-08
-7.16682e-09
2.76241e-08
1.38344e-08
-8.32567e-09
-2.17247e-09
7.68834e-09
-1.18016e-08
-1.01991e-10
2.23857e-10
-1.43785e-09
-3.65025e-08
-2.31498e-08
8.05235e-09
7.90067e-11
3.84733e-09
-6.98601e-09
1.07823e-08
6.33746e-09
-6.84669e-10
3.87916e-10
5.52405e-10
-2.55652e-10
5.9138e-09
-4.64646e-09
3.56615e-09
-4.83349e-09
-6.1329e-10
-7.07513e-10
3.02638e-10
7.94762e-10
-7.3832e-10
-1.3378e-10
-1.10622e-09
9.48078e-10
-1.76853e-08
2.49685e-09
1.47475e-09
1.37137e-08
2.89538e-10
-8.05438e-10
-1.68769e-10
-3.90586e-09
-1.48338e-08
1.05428e-09
5.6691e-09
1.18177e-08
-5.23727e-09
-1.22495e-08
1.64585e-08
5.75501e-10
-1.59259e-08
-1.10809e-09
-7.69614e-10
5.4069e-10
6.16839e-10
-7.76767e-10
4.12482e-10
3.64285e-10
-7.16055e-09
-3.75258e-09
4.42104e-09
-3.46277e-10
5.07119e-10
-1.60842e-10
1.31878e-09
-1.53079e-08
-8.20529e-10
9.09215e-09
-1.04166e-08
-1.12231e-09
-9.10547e-10
1.26361e-08
4.39317e-09
-4.13626e-09
-1.2893e-08
2.2909e-10
6.99266e-09
-7.70318e-09
6.48747e-09
-1.88568e-09
-8.56916e-09
7.87313e-09
2.58171e-09
-1.78187e-09
6.06267e-10
-1.36582e-08
-2.07733e-10
-1.38544e-10
-3.14454e-10
1.11836e-09
-7.96091e-09
7.44449e-10
1.73128e-08
-1.59882e-09
-1.35446e-08
1.48038e-08
-1.25918e-09
1.20277e-08
1.40831e-08
-1.56077e-08
-1.0503e-08
-7.50899e-10
1.29294e-09
-5.42046e-10
1.08985e-09
-1.34551e-09
2.55655e-10
1.7757e-09
-2.40369e-09
6.27995e-10
1.75643e-09
-1.45673e-09
-2.99696e-10
-1.13051e-08
4.58206e-10
1.08469e-08
2.46355e-09
-7.07129e-10
8.8943e-09
-1.52095e-08
6.77228e-09
-8.04229e-09
6.54511e-11
3.9216e-09
-4.07754e-10
-2.80849e-09
2.87394e-09
-7.16748e-09
8.4966e-09
-1.32913e-09
-8.10075e-10
4.13115e-09
7.04905e-10
1.72163e-08
-1.45214e-08
-1.59044e-09
-5.57168e-09
5.20851e-09
-1.27579e-09
-2.43781e-10
6.43222e-09
-6.45827e-09
2.60482e-11
7.03551e-09
4.37825e-09
1.79308e-10
-1.59146e-08
1.04454e-08
1.74969e-08
5.69448e-09
8.33368e-09
8.25696e-09
-6.81506e-09
9.54925e-10
-1.22601e-08
1.09949e-09
3.86833e-10
-1.27693e-08
3.3138e-09
-4.39854e-10
1.28002e-08
-1.22247e-08
-1.50037e-10
-1.02678e-09
-1.37505e-08
7.23308e-09
8.86722e-10
-4.03842e-11
-8.92337e-09
5.17417e-09
-3.11363e-08
-1.25318e-08
-2.55558e-09
1.33686e-09
1.38632e-08
1.0949e-08
-1.0642e-08
-1.41702e-08
1.58806e-08
-3.1243e-09
-1.27563e-08
1.70864e-09
3.87549e-09
-1.38772e-09
-9.67195e-10
-1.00062e-09
1.32169e-09
6.46129e-10
-2.8914e-10
4.1672e-10
4.24824e-10
6.2135e-08
-6.21603e-08
2.53049e-11
6.20539e-08
-6.2358e-08
3.04142e-10
8.36807e-10
6.47504e-08
-6.55795e-08
8.29091e-10
6.41408e-08
6.09592e-10
-2.23021e-10
-6.65285e-08
9.49032e-10
-6.20424e-08
6.19086e-08
1.3384e-10
1.32165e-09
-6.78502e-08
-6.22025e-08
1.60055e-10
1.21889e-08
-1.05049e-09
1.66264e-09
-3.72255e-09
3.1104e-09
4.17235e-10
-1.27887e-09
1.11184e-09
-7.80726e-10
1.4787e-09
-1.74897e-09
1.051e-09
1.53155e-09
-1.69168e-09
3.83984e-10
-9.47113e-11
-3.34292e-09
3.03069e-09
-2.28479e-09
2.59703e-09
-7.91526e-10
-2.85306e-09
2.5941e-09
-3.81408e-09
-5.6172e-09
6.45561e-10
-7.30204e-10
1.4118e-09
1.17874e-09
-6.5964e-09
8.01741e-09
2.95724e-09
2.02103e-08
-4.32971e-09
-8.08318e-10
3.01662e-10
1.15222e-09
-1.00957e-08
-2.64068e-08
5.46015e-09
-4.45571e-09
-3.11197e-09
2.10753e-09
1.32541e-10
1.51879e-11
4.9567e-10
-2.7779e-09
3.49048e-09
8.67843e-09
8.86918e-10
-5.1437e-10
2.21023e-09
-2.48739e-09
2.1952e-09
1.47547e-08
1.31916e-08
-2.69781e-08
3.24872e-08
6.1965e-09
-2.28681e-08
-1.03066e-08
1.81367e-08
-1.77222e-08
1.05346e-08
-2.38488e-10
-5.16973e-11
-1.40149e-09
-1.87935e-09
-2.68365e-09
3.90814e-09
1.47631e-08
-6.03356e-10
-1.35535e-08
-9.82315e-11
-2.76064e-09
5.8121e-12
1.54043e-08
1.7487e-08
1.3629e-08
6.90803e-10
-1.54823e-09
-1.27716e-08
-1.82638e-09
6.01489e-09
1.22903e-08
-7.3997e-10
-1.22022e-09
-3.52635e-09
2.73171e-09
3.82533e-09
2.4299e-09
1.42e-08
4.12942e-09
-1.39362e-08
1.75751e-08
-1.75766e-09
2.8e-09
-3.60332e-09
1.87932e-09
-4.60694e-09
1.28866e-08
-1.20162e-08
-1.39242e-08
5.61088e-10
8.75613e-09
-1.89771e-09
1.59506e-09
1.71445e-09
-8.71062e-09
5.89537e-10
-4.41072e-09
-6.04848e-09
1.21976e-08
-1.48597e-08
1.36352e-09
1.66312e-09
-2.18934e-09
1.64883e-08
-1.59621e-08
-9.75768e-10
1.40014e-08
2.8439e-09
-4.13696e-09
-1.39164e-08
7.32204e-09
-1.70512e-08
-7.99311e-09
6.55062e-09
5.85271e-09
1.43621e-08
-9.62702e-09
3.13777e-09
9.07095e-09
9.86434e-09
3.84755e-09
-4.12012e-09
2.14624e-08
-1.88449e-08
4.70458e-09
-1.01495e-08
2.23109e-09
5.47025e-09
1.35796e-08
-9.19887e-11
1.2578e-08
-1.34618e-08
-1.74048e-09
2.36954e-09
-1.47336e-09
8.44296e-10
1.08266e-08
-6.38038e-09
7.37151e-09
-1.05535e-08
1.39075e-09
-4.75449e-09
1.12712e-08
-1.1754e-08
-7.48182e-09
9.02394e-09
9.28444e-09
1.26849e-08
9.0511e-10
-1.3682e-08
1.66655e-09
8.33876e-10
-1.09177e-08
-6.71653e-09
1.01524e-08
-1.69777e-09
2.52338e-09
-8.84468e-09
4.78486e-09
-5.13421e-09
1.1325e-08
-3.49056e-09
-1.15063e-08
3.67179e-09
-4.51811e-09
1.10886e-08
2.07323e-09
1.18838e-09
-5.07521e-09
-1.74969e-08
1.03865e-08
1.21856e-08
8.49466e-10
-1.08061e-08
-9.76339e-09
1.54943e-08
1.23078e-08
2.76199e-09
-9.59958e-09
-1.32176e-08
-2.75401e-10
-1.25873e-08
2.32601e-10
-6.82697e-10
1.13279e-08
1.24177e-08
-8.15499e-09
1.62967e-08
-1.56635e-08
3.4963e-09
-4.53122e-10
1.68925e-09
1.24776e-08
-3.86663e-09
-1.25191e-08
-5.11868e-09
9.58394e-10
4.54711e-09
1.19684e-08
-7.37182e-09
7.88037e-10
-1.30105e-09
1.44146e-09
-1.88089e-09
6.07456e-09
2.59224e-08
-4.31871e-10
-1.16817e-08
1.21136e-08
2.82538e-08
-2.2077e-08
2.19432e-08
1.93835e-08
-1.25967e-08
-2.62759e-09
1.48713e-08
1.90416e-10
-1.20977e-08
-2.99196e-10
-6.02687e-09
-1.94819e-09
2.35766e-09
1.66376e-09
-3.97396e-11
-1.08403e-08
1.10561e-08
-1.76084e-10
2.79864e-09
-5.49332e-09
-1.06766e-08
1.03238e-08
-7.64687e-10
-1.04715e-08
-5.39835e-11
-1.07322e-08
-2.81916e-09
-1.18606e-08
2.25985e-09
7.80118e-09
5.09822e-09
6.25549e-11
-1.15829e-08
1.14806e-08
6.59952e-10
-8.53923e-09
5.25709e-09
-1.06892e-09
2.62398e-09
-2.96663e-09
-1.29813e-08
-1.31325e-08
1.27632e-08
-1.0153e-08
-1.58116e-08
1.005e-08
9.08944e-09
8.6096e-10
2.58696e-09
-1.42687e-08
1.10091e-08
1.70949e-09
4.0222e-09
3.64854e-10
-6.04114e-10
-3.7403e-10
-4.04188e-09
2.67218e-09
-1.39094e-09
3.14763e-10
-3.67909e-10
5.31461e-11
-2.55246e-09
1.27111e-08
2.14925e-09
2.56357e-09
-7.70552e-10
-1.74045e-09
-1.90601e-10
-2.52504e-09
-6.16905e-10
1.27164e-08
9.82794e-09
-4.59048e-10
7.045e-09
-1.19931e-09
-5.38664e-09
-9.65692e-09
-5.078e-09
2.44953e-10
6.9809e-11
4.74861e-09
1.33495e-09
-1.68896e-08
-5.49128e-10
-8.98356e-10
-2.52673e-09
9.14696e-10
2.6935e-09
6.19343e-08
-8.83204e-11
-6.1846e-08
6.2353e-08
1.89115e-10
-6.25421e-08
-1.41918e-08
3.20135e-11
1.45529e-08
-3.93088e-10
2.80107e-09
-2.02611e-09
2.7578e-09
1.79169e-09
-4.38517e-09
-4.67026e-10
-6.23867e-10
5.0585e-10
-1.37636e-10
5.81739e-10
-4.16254e-10
1.92037e-08
1.12008e-09
-1.55751e-08
-2.76321e-10
-1.95896e-09
1.22107e-08
2.22587e-09
1.7515e-09
5.21059e-09
-1.91074e-09
-7.72394e-08
-2.41762e-08
-4.77933e-09
1.57383e-08
2.31645e-09
-6.21095e-10
-3.29488e-09
-1.32332e-09
6.34236e-10
-5.31142e-10
-1.16177e-08
-3.12929e-10
1.19307e-08
-1.0673e-08
-6.65288e-09
1.06094e-08
-9.30837e-09
8.79737e-09
-6.06064e-11
1.80905e-09
1.10957e-08
-1.08789e-08
-2.16771e-10
7.20118e-10
7.20882e-11
1.00017e-08
1.00043e-09
-1.08477e-09
-2.99159e-10
-1.42412e-08
-5.22016e-10
-1.35064e-08
1.22648e-08
-1.15729e-08
-6.59864e-08
6.49429e-08
1.04349e-09
4.17317e-10
-4.02129e-10
1.17189e-08
-3.84616e-10
1.67067e-11
-2.00856e-09
2.77622e-09
-3.39924e-09
-1.35206e-08
-1.66743e-09
2.57484e-09
-4.74372e-09
-1.38646e-08
1.71865e-09
5.61125e-09
9.47378e-09
-8.80217e-09
-4.13983e-10
2.93669e-11
-9.34636e-09
-1.29168e-08
1.50573e-10
-6.27099e-08
2.3805e-10
6.24718e-08
6.96087e-10
6.34447e-08
-2.2599e-10
-1.1185e-09
-1.43872e-08
1.05346e-10
-6.33765e-08
6.32711e-08
1.81837e-10
-6.29267e-08
6.27449e-08
4.99004e-10
6.18064e-08
1.52224e-10
-6.19586e-08
6.16369e-08
1.69519e-10
-8.79048e-08
8.85137e-08
6.52924e-13
9.33918e-08
-9.30995e-08
-2.67036e-10
-8.6644e-08
-4.3163e-10
9.3353e-08
-1.84171e-10
-8.49293e-08
-7.65683e-10
9.34845e-08
1.72676e-10
-5.17411e-10
1.96037e-09
9.23609e-08
-6.9351e-08
6.21499e-08
-6.23326e-08
-6.2966e-08
6.14945e-08
1.42441e-10
-2.99578e-09
2.7761e-09
-1.37165e-08
7.66852e-11
1.68268e-10
2.0644e-09
9.21248e-09
-1.15645e-08
3.82746e-08
-3.44513e-08
-1.65926e-08
1.38021e-08
-7.25181e-11
-2.22367e-10
2.61873e-10
8.81991e-10
-1.69962e-10
3.86672e-10
4.62601e-09
1.03199e-09
-3.77867e-09
-3.43598e-10
3.9973e-10
-2.72149e-10
-2.44963e-09
1.28772e-08
2.28352e-09
-1.44485e-08
-2.45571e-09
-3.60352e-09
5.67139e-09
1.06214e-09
-2.59732e-09
1.41813e-08
-1.19745e-09
-3.44677e-09
4.86279e-09
-8.12628e-09
-1.90715e-08
-1.31585e-08
7.72482e-09
5.99481e-09
-3.02838e-10
-5.26198e-10
3.18669e-09
1.44047e-08
2.01403e-09
-1.54205e-09
-4.59796e-10
5.02569e-10
-2.86554e-10
1.5995e-08
-4.80625e-10
-1.58273e-08
-2.52302e-09
-1.81951e-09
2.94026e-10
-2.24905e-10
3.6825e-09
-1.7367e-08
6.00459e-10
-1.67171e-09
-2.28864e-09
-2.40044e-09
1.52974e-08
-9.06013e-08
-1.39259e-10
9.16881e-08
-1.91222e-10
-8.91787e-08
-4.78715e-10
9.31054e-08
-2.73318e-10
-9.29204e-08
-6.10784e-10
-1.76805e-09
1.63226e-08
9.19909e-08
-1.93416e-10
3.11335e-11
-2.20134e-10
1.04398e-08
2.41299e-09
-8.78255e-09
-1.19488e-08
-5.66602e-09
8.46571e-09
1.3935e-09
-6.90197e-09
-6.2482e-09
9.02875e-09
-1.82872e-10
1.01601e-08
1.93387e-08
-1.77266e-08
3.03813e-09
-1.24926e-08
3.0116e-09
-6.99511e-08
3.96468e-09
-2.03468e-08
-1.29618e-08
-5.78067e-10
-5.91401e-09
-1.53494e-08
9.16573e-09
-1.52292e-08
5.44647e-10
4.60157e-10
-1.59714e-09
-1.62419e-08
1.67969e-08
8.44862e-09
-8.64824e-09
-5.33578e-09
1.50768e-08
-1.70436e-09
8.08899e-10
-1.36559e-09
4.38679e-10
1.20214e-08
3.36487e-09
7.09524e-08
-1.80276e-08
8.93108e-10
-1.47496e-08
-2.86672e-10
-3.33966e-10
-1.44211e-10
6.09601e-08
-6.12334e-08
-6.33454e-08
-6.31201e-08
-6.25651e-11
-2.61033e-10
-9.25968e-08
-6.04614e-08
6.24218e-08
6.50594e-08
-6.02887e-08
6.4542e-08
-6.04729e-08
6.37763e-08
-6.07399e-08
6.33447e-08
9.23205e-08
3.60004e-10
-6.44448e-09
7.50964e-08
-6.5287e-08
8.85233e-11
-8.85233e-11
1.4136e-09
-3.67712e-10
1.54984e-08
-9.58141e-11
9.58141e-11
4.49389e-10
1.56834e-09
1.38605e-08
1.31374e-08
-2.77799e-09
3.75808e-09
6.32789e-09
1.9457e-09
4.41432e-10
-3.11384e-10
-2.92874e-09
1.44352e-08
1.48289e-08
-4.27329e-09
1.17597e-08
2.43292e-10
1.93397e-10
2.92925e-09
-9.78039e-10
-1.71104e-09
-5.91864e-09
-1.53934e-10
-4.63596e-10
1.52642e-08
3.37231e-10
1.33276e-10
1.55855e-08
-2.58874e-08
1.73904e-08
2.59417e-09
1.42937e-09
2.35218e-09
-3.64369e-09
1.90838e-08
-1.77923e-08
-1.1921e-10
6.75082e-10
-1.44532e-09
-7.92171e-08
-7.07963e-08
1.44037e-09
-9.48569e-10
7.081e-10
2.28402e-08
1.84417e-08
-6.45755e-09
1.21778e-10
-4.44628e-09
-2.29594e-09
2.99629e-08
1.56076e-10
1.48176e-08
7.35804e-08
8.70585e-11
5.52201e-10
-2.03827e-10
-2.68684e-10
-3.82204e-09
2.42381e-08
-1.48227e-08
1.16688e-09
-1.39704e-08
-7.97444e-11
2.02249e-08
-2.87095e-08
9.02077e-10
2.33977e-09
-5.69098e-10
)
;

boundaryField
{
    back
    {
        type            empty;
        value           nonuniform 0();
    }
    ingreso
    {
        type            calculated;
        value           nonuniform List<scalar> 
14
(
-1.54286e-08
-1.54288e-08
-1.54288e-08
-1.54288e-08
-1.54286e-08
-1.54283e-08
-1.54288e-08
-1.54288e-08
-1.54286e-08
-1.54286e-08
-1.54288e-08
-1.5428e-08
-1.5428e-08
-1.54286e-08
)
;
    }
    salida
    {
        type            calculated;
        value           nonuniform List<scalar> 2(1.01416e-07 1.14584e-07);
    }
    front
    {
        type            empty;
        value           nonuniform 0();
    }
    defaultFaces
    {
        type            calculated;
        value           uniform 0;
    }
}


// ************************************************************************* //
