/*--------------------------------*- C++ -*----------------------------------*\
  =========                 |
  \\      /  F ield         | OpenFOAM: The Open Source CFD Toolbox
   \\    /   O peration     | Website:  https://openfoam.org
    \\  /    A nd           | Version:  7
     \\/     M anipulation  |
\*---------------------------------------------------------------------------*/
FoamFile
{
    version     2.0;
    format      ascii;
    class       volScalarField;
    location    "74.5";
    object      p;
}
// * * * * * * * * * * * * * * * * * * * * * * * * * * * * * * * * * * * * * //

dimensions      [0 2 -2 0 0 0 0];

internalField   nonuniform List<scalar> 
591
(
0.000123881
0.000123898
0.000123903
0.000123855
0.000123857
0.000123927
0.000123921
0.00012389
0.000116986
0.000123908
0.000124089
0.000122827
0.000123896
0.000119727
0.00012389
0.000123937
0.000123874
0.000123935
0.000121952
0.000123269
0.000123872
-3.52584e-06
0.000124086
0.000123874
0.000124043
0.000123895
0.000123998
0.000124003
0.000123908
0.000123916
0.000124063
0.000124038
0.000124058
0.000124057
0.000124059
0.000123382
0.000124054
0.000123874
0.000124081
0.000124
0.00012396
0.000124051
0.000123903
0.000123924
0.000124048
0.000124068
0.000119236
0.000124072
0.000123907
0.000124026
0.000124017
0.000124049
2.39434e-05
3.05877e-05
4.78423e-05
0.000123901
0.000124076
0.000124065
0.000124069
0.000123881
0.000123968
0.000123898
0.000123896
0.000123946
0.000122567
0.000123899
0.000123902
0.000124066
0.00012072
0.000123912
0.000123907
0.000124073
0.000124043
0.000124052
0.000124058
0.000124034
0.000123876
0.00012407
0.000123878
0.000123813
0.000123655
0.000124075
0.000124035
0.000124014
0.000124082
0.000123889
0.000123979
0.000124064
0.000124027
0.000123779
0.000124039
0.000123986
0.000124001
0.000123881
0.00012408
0.000124034
0.000123585
0.000123484
0.000123645
0.000124086
0.000123994
0.00012391
0.00012409
0.000123852
0.000124091
0.0001239
0.000123897
0.000124041
0.000124082
0.000124086
0.000123973
0.000124062
0.000123914
0.000124066
0.000124084
0.000124065
0.000124018
0.000124013
0.000123578
0.000123986
0.0001239
0.000123894
0.000123979
0.00012388
0.000124053
0.000120198
0.00012409
0.000124066
0.000123652
0.000124059
0.00012389
0.000123577
0.000124026
0.00012402
0.000124062
0.000123905
0.000122625
0.000124088
0.000123892
0.000123575
0.00012364
0.000123987
0.000124071
0.000124082
0.000124076
7.61707e-06
3.67891e-06
2.07136e-06
3.81597e-05
3.66996e-05
5.66151e-06
3.83106e-05
1.57412e-05
3.72917e-05
1.7808e-05
0.000123899
0.000123891
0.000124078
0.000124071
0.000124079
0.000124078
0.00012407
0.000124066
0.000124077
0.000124076
0.00012404
0.000124079
0.000124075
0.000124081
0.000124019
0.000123391
0.000124082
0.00012212
0.000124062
0.000124062
0.000124009
0.000123909
0.000124062
0.000124076
0.000124074
0.000123489
0.00012247
0.000123046
0.000123442
0.000124066
0.000124072
0.000123983
0.000123871
0.000124068
0.000122965
0.000123298
0.000123872
0.00012406
0.000123755
0.000124054
0.000124071
0.000124045
0.000123724
0.000123862
0.000124068
0.000124075
0.000124073
0.00012387
0.000124056
0.000123867
0.000124083
0.000123893
0.000123893
0.00012408
0.000123686
0.000123863
0.000123903
0.00012354
0.000124031
0.000123686
0.000123974
0.000123986
0.00012406
0.000123454
0.000123963
0.000123855
0.000123856
0.000124035
0.000123794
0.000123949
0.000123863
0.000123774
0.000123849
0.000124084
0.000123839
0.000124081
0.000123929
0.000124058
0.000123905
0.000123906
0.000124086
0.000123798
0.000124073
0.000123787
0.000123835
0.000123898
0.000123878
0.000123914
0.000123901
0.00012367
0.000123874
0.000123826
0.000124043
0.000123893
0.000123744
0.00012403
0.000123296
0.000123854
0.000123189
0.000123072
0.000123884
0.000123849
0.000123887
0.000123884
0.000123853
0.000124085
0.00012393
0.000124013
0.000123941
0.000123934
0.000123947
0.000124037
0.000123688
0.000124081
0.000123724
0.000123614
0.000123918
0.000124057
0.000123636
0.000124077
0.000123984
0.000124008
0.000124033
0.000123909
0.00012388
0.000123711
0.000123844
0.000123874
0.000123924
0.00012398
0.000124047
0.000124064
0.00012407
0.000123828
0.000123933
0.000124058
0.000124064
0.00012406
0.000123852
0.000124072
0.000123945
0.000124054
0.000123814
0.000124072
0.000123803
0.000124049
0.000123938
0.00012388
1.16419e-05
2.19122e-05
0.00012383
0.000123905
0.000124083
0.000123834
0.000124084
0.000123916
0.000124072
0.000124049
0.000123786
0.000124044
0.000123873
0.00012408
0.000123907
-2.09709e-07
0.000123771
0.000124055
0.00012405
0.000123746
0.000123895
0.000123937
0.000124045
0.000123803
0.000124066
0.00012395
0.0001239
0.000124043
0.00012385
0.000123777
0.000123811
0.000123909
4.74751e-05
0.00012406
0.000124043
0.000123899
0.000124067
0.000123978
0.000123921
0.000123903
0.00012389
0.000124053
0.000123916
0.000123823
0.000123947
0.000123828
0.000124066
0.000123835
0.000123892
0.000123927
0.000124012
1.98731e-05
2.73332e-05
3.42945e-05
9.63899e-06
0.000123875
3.30533e-05
2.60011e-05
0.000124063
1.9074e-05
1.70297e-05
3.81848e-05
7.5757e-06
3.9937e-05
5.60429e-06
4.08315e-05
3.68825e-06
4.28143e-05
1.87534e-06
3.64046e-05
2.31978e-05
2.94495e-05
1.49921e-05
0.000123755
0.000124074
0.000123942
0.000123949
0.000120895
0.000123994
0.000124069
0.000124039
0.000123842
0.000124074
0.000124075
0.000124055
0.000124052
0.000123816
0.000123891
0.000124059
0.000124065
0.000123902
0.000123772
0.000123842
0.000123406
0.000123858
0.000124088
0.000124059
0.000123902
0.000124082
0.000123747
0.000123927
0.000123706
0.000122859
0.000124053
0.000124065
0.000124087
0.00012376
0.000123945
0.000123705
0.000123915
0.000123905
2.60426e-05
2.18772e-05
3.3035e-05
1.16178e-05
0.000124091
0.000123753
1.98196e-05
2.82543e-05
3.56015e-05
9.58762e-06
0.000123907
0.000124004
0.000123857
0.000123868
0.000123892
0.000124025
0.000123817
0.000124049
0.00012399
0.0001231
0.000123871
0.000123838
5.9358e-05
0.000123224
0.000124079
0.000123885
0.00012378
0.000124068
0.000124071
0.000123866
0.000123667
0.000123895
0.000123957
0.000123749
0.000124025
0.000122907
0.000123829
0.000123846
0.000124033
0.000100879
0.000123882
0.000123485
0.000123814
0.00012408
0.000123715
1.08956e-05
2.11145e-05
3.53663e-05
2.81905e-05
1.36616e-05
5.42497e-08
4.20796e-05
2.68938e-06
4.01579e-05
4.76152e-06
3.94163e-05
6.8143e-06
3.86233e-05
8.857e-06
3.7289e-05
1.36737e-05
3.1727e-05
3.05832e-05
2.39371e-05
2.52769e-05
1.77649e-05
1.2938e-05
1.57073e-05
0.000124073
0.000102411
0.000123874
0.000123806
0.000124077
0.000123969
0.000124083
0.000123799
0.000123928
0.000124045
0.00012404
0.000124047
0.000123801
0.000123897
0.000123801
0.000124006
0.000123836
0.000124078
0.000123946
0.000123778
0.000123783
0.000123908
0.000123901
0.000124084
0.000124075
0.000124085
0.000124044
0.000124088
0.000123715
0.000123895
0.000124079
0.000123841
0.00012397
0.0001239
0.000123942
0.000123782
0.000124044
0.000124042
0.000123356
0.000121369
0.000123084
0.000123629
0.000123896
0.000123727
0.000123907
0.000124084
0.000124048
0.000123901
0.000123517
0.000123496
0.000124079
0.000124046
0.000123916
0.000124012
0.000123555
5.83167e-05
4.01201e-05
0.000124018
0.000124035
0.000123397
0.000122744
0.000123882
0.000123626
0.000123373
0.000123892
0.000123799
0.000124068
0.000123925
0.000123954
0.000119004
5.44783e-05
0.000123923
8.12381e-05
1.86143e-06
-3.81354e-07
0.000123892
0.000123861
0.000124045
0.000124086
0.000124076
0.000124078
0.000124079
0.000123878
-2.3077e-06
0.000122827
0.000123916
0.000124024
0.000122011
0.000124077
0.000124077
0.000122284
0.000123992
0.000124047
0.000121691
0.000124082
7.63444e-05
0.000124075
0.000123729
0.000124039
0.000122373
0.000123604
0.000123665
0.000123925
0.000124084
0.000124031
0.000124076
0.000124088
0.000123895
0.000116174
)
;

boundaryField
{
    back
    {
        type            empty;
    }
    ingreso
    {
        type            zeroGradient;
    }
    salida
    {
        type            fixedValue;
        value           uniform 0;
    }
    front
    {
        type            empty;
    }
    defaultFaces
    {
        type            zeroGradient;
    }
}


// ************************************************************************* //
