/*--------------------------------*- C++ -*----------------------------------*\
  =========                 |
  \\      /  F ield         | OpenFOAM: The Open Source CFD Toolbox
   \\    /   O peration     | Website:  https://openfoam.org
    \\  /    A nd           | Version:  7
     \\/     M anipulation  |
\*---------------------------------------------------------------------------*/
FoamFile
{
    version     2.0;
    format      ascii;
    class       volScalarField;
    location    "69";
    object      p;
}
// * * * * * * * * * * * * * * * * * * * * * * * * * * * * * * * * * * * * * //

dimensions      [0 2 -2 0 0 0 0];

internalField   nonuniform List<scalar> 
591
(
0.000123885
0.000123902
0.000123907
0.00012386
0.000123862
0.000123932
0.000123926
0.000123895
0.000116985
0.000123912
0.000124091
0.000122828
0.000123901
0.00011973
0.000123895
0.000123943
0.000123874
0.000123939
0.000121951
0.000123274
0.000123876
-3.52644e-06
0.000124088
0.000123878
0.000124046
0.000123899
0.000123999
0.000124007
0.000123912
0.00012392
0.000124066
0.000124041
0.00012406
0.000124059
0.000124061
0.000123386
0.000124057
0.000123878
0.000124083
0.000124002
0.000123965
0.000124053
0.000123907
0.000123928
0.00012405
0.00012407
0.000119243
0.000124074
0.000123911
0.00012403
0.000124018
0.000124051
2.39389e-05
3.05837e-05
4.78372e-05
0.000123906
0.000124078
0.000124066
0.000124072
0.000123885
0.000123972
0.000123902
0.000123901
0.00012395
0.000122569
0.000123903
0.000123906
0.000124069
0.000120722
0.000123916
0.000123911
0.000124075
0.000124044
0.000124055
0.00012406
0.000124037
0.00012388
0.000124072
0.000123882
0.000123816
0.00012366
0.000124077
0.000124037
0.000124016
0.000124084
0.000123893
0.000123983
0.000124067
0.000124029
0.000123782
0.000124042
0.000123987
0.000124004
0.000123885
0.000124083
0.000124037
0.00012359
0.000123489
0.000123646
0.000124088
0.000123997
0.000123913
0.000124092
0.000123858
0.000124093
0.000123904
0.000123901
0.000124042
0.000124084
0.000124087
0.000123975
0.000124063
0.000123918
0.000124068
0.000124086
0.000124066
0.00012402
0.000124016
0.000123579
0.000123987
0.000123904
0.000123898
0.00012398
0.000123885
0.000124056
0.000120198
0.000124092
0.000124068
0.000123657
0.000124061
0.000123894
0.000123582
0.000124027
0.000124023
0.000124065
0.000123909
0.000122623
0.000124091
0.000123897
0.000123577
0.000123642
0.000123991
0.000124073
0.000124084
0.000124078
7.61458e-06
3.67736e-06
2.07031e-06
3.81535e-05
3.66938e-05
5.65948e-06
3.8304e-05
1.57369e-05
3.72842e-05
1.78031e-05
0.000123903
0.000123894
0.00012408
0.000124074
0.000124081
0.00012408
0.000124072
0.000124069
0.000124079
0.000124078
0.000124042
0.000124081
0.000124077
0.000124083
0.00012402
0.000123392
0.000124084
0.00012212
0.000124063
0.000124064
0.000124012
0.000123913
0.000124064
0.000124078
0.000124076
0.00012349
0.000122471
0.000123047
0.000123444
0.000124068
0.000124075
0.000123989
0.000123875
0.00012407
0.000122965
0.000123301
0.000123876
0.000124062
0.000123758
0.000124056
0.000124072
0.000124046
0.000123728
0.000123866
0.00012407
0.000124076
0.000124074
0.000123871
0.000124058
0.000123868
0.000124085
0.000123898
0.000123896
0.000124082
0.00012369
0.000123867
0.000123907
0.000123543
0.000124033
0.000123689
0.000123976
0.000123987
0.000124061
0.000123457
0.000123966
0.000123859
0.000123861
0.000124038
0.000123797
0.000123952
0.000123866
0.000123776
0.000123853
0.000124086
0.000123841
0.000124082
0.00012393
0.000124059
0.000123908
0.000123908
0.000124088
0.000123802
0.000124076
0.000123792
0.000123839
0.000123902
0.000123882
0.000123918
0.000123904
0.000123674
0.000123878
0.000123829
0.000124046
0.000123897
0.000123746
0.000124033
0.000123299
0.000123854
0.000123193
0.000123074
0.000123888
0.000123854
0.000123891
0.000123888
0.000123855
0.000124087
0.000123933
0.000124017
0.000123944
0.000123938
0.000123951
0.000124039
0.00012369
0.000124082
0.000123727
0.000123617
0.000123921
0.000124058
0.000123639
0.000124079
0.000123986
0.000124012
0.000124036
0.000123913
0.000123882
0.000123712
0.000123848
0.000123876
0.000123928
0.000123983
0.00012405
0.000124067
0.000124072
0.000123832
0.000123937
0.00012406
0.000124067
0.000124062
0.000123856
0.000124074
0.000123948
0.000124055
0.000123819
0.000124075
0.000123807
0.000124052
0.000123942
0.000123883
1.16385e-05
2.19075e-05
0.000123836
0.000123909
0.000124085
0.000123838
0.000124085
0.000123919
0.000124074
0.000124052
0.000123791
0.000124047
0.000123877
0.000124081
0.000123911
-2.09801e-07
0.000123771
0.000124057
0.000124052
0.000123752
0.000123897
0.000123938
0.000124047
0.000123809
0.000124068
0.000123954
0.000123903
0.000124045
0.000123856
0.000123783
0.000123816
0.000123913
4.74667e-05
0.000124063
0.000124046
0.000123902
0.000124069
0.000123982
0.000123925
0.000123906
0.000123895
0.000124056
0.00012392
0.000123828
0.000123949
0.000123832
0.000124068
0.00012384
0.000123895
0.000123931
0.000124016
1.98677e-05
2.73031e-05
3.42891e-05
9.63603e-06
0.000123879
3.30495e-05
2.601e-05
0.000124066
1.90685e-05
1.7025e-05
3.81791e-05
7.57311e-06
3.9931e-05
5.60215e-06
4.08255e-05
3.68669e-06
4.28085e-05
1.87434e-06
3.63961e-05
2.31887e-05
2.94372e-05
1.49878e-05
0.000123759
0.000124076
0.000123946
0.000123953
0.000120895
0.000123999
0.000124071
0.000124042
0.000123847
0.000124077
0.000124077
0.000124058
0.000124055
0.00012382
0.000123896
0.00012406
0.000124066
0.000123904
0.000123776
0.000123841
0.000123408
0.00012386
0.00012409
0.000124061
0.000123907
0.000124084
0.000123752
0.00012393
0.000123711
0.000122862
0.000124056
0.000124067
0.000124089
0.000123764
0.000123946
0.00012371
0.000123919
0.000123909
2.60451e-05
2.18719e-05
3.30293e-05
1.16145e-05
0.000124093
0.000123758
1.98144e-05
2.82518e-05
3.55959e-05
9.58469e-06
0.000123908
0.000124008
0.00012386
0.000123871
0.000123897
0.000124026
0.000123818
0.000124052
0.000123991
0.000123101
0.000123874
0.000123841
5.93484e-05
0.000123225
0.000124082
0.000123888
0.000123785
0.00012407
0.000124073
0.000123871
0.000123671
0.000123899
0.000123964
0.000123753
0.000124027
0.000122912
0.000123835
0.00012385
0.000124035
0.000100877
0.000123883
0.000123487
0.000123819
0.000124082
0.00012372
1.08923e-05
2.11079e-05
3.53609e-05
2.82011e-05
1.36578e-05
5.3393e-08
4.20726e-05
2.68802e-06
4.01516e-05
4.75963e-06
3.94101e-05
6.81194e-06
3.86172e-05
8.85411e-06
3.72832e-05
1.36698e-05
3.17209e-05
3.05846e-05
2.39346e-05
2.52559e-05
1.77603e-05
1.29342e-05
1.5703e-05
0.000124076
0.000102411
0.000123878
0.000123812
0.000124079
0.000123971
0.000124085
0.000123803
0.000123933
0.000124047
0.000124043
0.00012405
0.000123805
0.000123902
0.000123802
0.00012401
0.000123841
0.00012408
0.000123947
0.000123779
0.000123784
0.000123913
0.000123905
0.000124087
0.000124078
0.000124086
0.000124047
0.00012409
0.000123719
0.0001239
0.000124082
0.000123846
0.000123974
0.000123904
0.000123943
0.000123786
0.000124046
0.000124045
0.00012336
0.000121373
0.000123089
0.000123632
0.000123901
0.000123731
0.000123912
0.000124086
0.000124049
0.000123906
0.000123521
0.0001235
0.000124081
0.000124049
0.00012392
0.000124015
0.000123559
5.83128e-05
4.01113e-05
0.00012402
0.000124037
0.0001234
0.000122746
0.000123886
0.000123628
0.000123374
0.000123897
0.0001238
0.00012407
0.00012393
0.000123958
0.000119004
5.44708e-05
0.000123927
8.12291e-05
1.86091e-06
-3.818e-07
0.000123896
0.000123866
0.000124048
0.000124088
0.000124077
0.000124081
0.00012408
0.000123882
-2.30787e-06
0.000122829
0.00012392
0.000124027
0.00012201
0.000124079
0.00012408
0.000122287
0.000123996
0.00012405
0.000121695
0.000124083
7.63422e-05
0.000124078
0.000123715
0.000124041
0.000122375
0.000123608
0.000123666
0.000123929
0.000124086
0.000124034
0.000124079
0.00012409
0.000123901
0.000116176
)
;

boundaryField
{
    back
    {
        type            empty;
    }
    ingreso
    {
        type            zeroGradient;
    }
    salida
    {
        type            fixedValue;
        value           uniform 0;
    }
    front
    {
        type            empty;
    }
    defaultFaces
    {
        type            zeroGradient;
    }
}


// ************************************************************************* //
