/*--------------------------------*- C++ -*----------------------------------*\
  =========                 |
  \\      /  F ield         | OpenFOAM: The Open Source CFD Toolbox
   \\    /   O peration     | Website:  https://openfoam.org
    \\  /    A nd           | Version:  7
     \\/     M anipulation  |
\*---------------------------------------------------------------------------*/
FoamFile
{
    version     2.0;
    format      ascii;
    class       volVectorField;
    location    "69";
    object      U;
}
// * * * * * * * * * * * * * * * * * * * * * * * * * * * * * * * * * * * * * //

dimensions      [0 1 -1 0 0 0 0];

internalField   nonuniform List<vector> 
591
(
(0.000829045 -2.43705e-05 1.218e-18)
(0.00081837 -2.23939e-05 -6.64035e-19)
(0.000857261 -7.45191e-06 5.68627e-20)
(0.000858844 -1.06359e-05 -1.49121e-19)
(0.000842735 2.8615e-06 2.25595e-19)
(0.000802259 -4.08115e-05 -1.39631e-19)
(0.000560338 -0.000292291 8.06468e-19)
(0.000803154 4.20118e-06 2.08547e-18)
(0.00573448 0.00250146 9.87813e-19)
(0.000799721 -1.28234e-05 2.45486e-18)
(4.92013e-05 0.000169341 1.21834e-18)
(0.000930714 0.00137785 9.40789e-21)
(0.000799187 5.05688e-06 1.32533e-18)
(0.00160048 0.00239143 -7.87635e-19)
(0.00080334 2.57207e-06 -4.4401e-19)
(6.49048e-05 -0.000201055 2.39431e-22)
(0.000136796 0.00067713 7.04994e-19)
(0.000818734 6.55641e-05 -4.98961e-19)
(0.00192756 0.000393189 4.7378e-19)
(0.00135829 0.000253563 -2.4712e-19)
(0.000833386 -4.96041e-06 3.72807e-19)
(0.00340007 0.00655938 -8.15283e-20)
(2.73404e-05 6.98756e-05 2.70961e-19)
(0.000835148 -1.57013e-05 -4.51056e-19)
(1.10984e-05 -1.58723e-05 3.58951e-19)
(0.000773497 3.31538e-05 0)
(9.31689e-05 0.00047411 1.59972e-19)
(0.000544863 1.06481e-05 -1.78852e-19)
(0.000754196 4.77514e-05 1.14959e-18)
(0.000811526 5.05261e-05 5.90509e-19)
(5.72686e-05 -3.72237e-06 -4.49946e-24)
(3.22687e-05 -4.61582e-05 3.52198e-19)
(3.62949e-05 -3.07144e-06 -4.64254e-20)
(4.51506e-05 -1.18981e-05 0)
(5.42931e-05 -1.31816e-05 1.13153e-18)
(0.00117456 0.000131925 1.79935e-19)
(3.09362e-05 -5.34109e-06 4.47172e-20)
(0.000826558 4.95525e-06 3.06736e-23)
(2.71484e-05 4.35473e-05 2.66045e-19)
(1.36551e-05 -9.9892e-05 -8.54869e-19)
(0.000636953 -0.000204021 9.60147e-19)
(2.48142e-05 -6.68763e-06 4.54852e-20)
(0.000801829 2.09404e-06 -1.58101e-18)
(0.000830786 4.22504e-05 -6.91199e-19)
(1.68994e-05 -7.8453e-06 0)
(5.47551e-05 6.84829e-06 8.5192e-20)
(0.00134589 0.00450205 8.92998e-19)
(7.58224e-05 1.59038e-05 8.63672e-20)
(0.000800472 1.66259e-05 0)
(0.000382739 -0.000206904 6.77592e-19)
(0.000381729 0.000273331 5.11936e-21)
(0.000394232 4.89994e-05 -1.00385e-18)
(0.00634835 0.0109418 -7.6841e-19)
(0.00622513 0.010797 1.5277e-20)
(0.00561454 0.0103799 1.45568e-18)
(0.000809027 2.89221e-05 0)
(6.68967e-05 3.08316e-05 0)
(0.0003176 1.37696e-05 1.50784e-23)
(6.27932e-05 1.0431e-05 -3.46478e-19)
(0.000815022 -8.10412e-06 0)
(0.000637341 2.88449e-05 3.17585e-19)
(0.00083392 9.75894e-06 2.20801e-18)
(0.000800004 2.95568e-05 -5.41419e-19)
(0.00079948 1.49909e-05 -3.15769e-19)
(0.00171185 0.000484541 5.42646e-19)
(0.0007987 1.47163e-05 -1.15411e-18)
(0.00082832 1.95266e-05 -5.24285e-19)
(8.04666e-05 -2.59162e-06 -1.73421e-19)
(0.00068897 0.00226259 0)
(0.00083647 3.78008e-05 0)
(0.000778349 1.66389e-05 -1.39236e-18)
(3.79624e-05 1.59731e-05 0)
(0.000288654 0.000270368 3.26859e-19)
(4.01522e-05 -1.72703e-05 0)
(4.14387e-05 -5.90011e-06 1.59482e-19)
(1.54783e-05 -4.43802e-05 -3.36691e-20)
(0.000790492 7.64945e-05 2.46932e-19)
(4.41676e-05 1.06524e-05 0)
(0.000800556 5.64174e-05 4.47423e-19)
(0.000771907 0.000293554 2.10738e-19)
(0.00096447 6.25596e-05 -3.97951e-20)
(4.28463e-05 2.29833e-05 -4.51888e-20)
(5.58703e-06 -2.27345e-05 0)
(0.000433535 0.000216569 1.70193e-19)
(2.85275e-06 2.25428e-05 0)
(0.000791563 3.74393e-05 -6.07019e-19)
(0.000608764 -0.000120503 0)
(6.46353e-05 -1.72407e-06 -1.74489e-19)
(3.23012e-06 -3.11755e-05 0)
(0.000827874 0.000241774 -3.41283e-19)
(3.69924e-06 -1.3516e-05 0)
(0.000423348 0.000323255 -1.30255e-23)
(0.00052995 0.000111897 0)
(0.000806458 4.4944e-05 -3.21927e-24)
(2.70015e-06 1.4272e-05 -4.21737e-20)
(0.000454537 -1.33104e-05 1.76365e-18)
(0.00102336 7.22016e-05 4.16054e-20)
(0.000832975 4.45805e-05 6.41178e-22)
(0.000738582 0.000657706 2.69512e-19)
(6.72161e-06 4.84909e-05 0)
(2.29912e-07 -4.68249e-05 -3.12026e-19)
(-2.08315e-05 -8.27167e-05 -1.10076e-18)
(4.125e-06 7.74602e-05 -5.9636e-19)
(0.000621732 -2.07142e-05 0)
(8.19429e-06 0.000102212 0)
(0.000810444 2.5031e-05 2.18225e-18)
(0.000787481 2.42065e-05 1.53437e-18)
(0.000425671 -8.08828e-05 0)
(4.24465e-05 0.000218159 -8.95431e-19)
(-2.53124e-07 0.00016868 4.96677e-19)
(6.18413e-05 0.0004109 6.25166e-19)
(0.000305423 8.24798e-05 -9.37169e-19)
(0.000802895 2.00488e-05 1.37343e-19)
(0.00026123 -4.22313e-05 5.31253e-19)
(4.19233e-06 3.22448e-05 0)
(2.18968e-05 0.000286251 -1.09395e-18)
(0.000320315 0.000323849 -1.6171e-19)
(1.44485e-06 -3.81252e-05 1.46513e-19)
(0.000670291 0.000813423 0)
(0.000368187 0.000387769 5.74437e-20)
(0.000815648 1.5797e-05 1.07032e-18)
(0.000799387 1.52883e-06 -2.71933e-18)
(5.97151e-06 -4.23661e-05 0)
(0.000674278 -3.31405e-05 -1.12323e-19)
(0.000320842 -0.0001137 1.24331e-18)
(0.00264526 0.000806654 -3.36265e-19)
(5.61326e-06 0.00013241 -6.13171e-19)
(4.75926e-06 0.000161603 1.61938e-18)
(0.000709676 2.23172e-05 -3.89934e-20)
(6.30492e-05 -1.35776e-05 -7.50209e-19)
(0.000806109 2.87883e-05 -3.87632e-19)
(0.000758329 2.62449e-05 -4.1044e-20)
(3.69851e-05 0.000332285 -5.9694e-19)
(0.000486397 6.60605e-05 -4.93957e-19)
(4.83134e-05 -3.3677e-06 1.56162e-19)
(0.000833003 2.8628e-05 -1.09534e-18)
(0.00156045 0.000237993 -1.13711e-18)
(4.2528e-06 6.22955e-05 4.96431e-19)
(0.000809561 2.80122e-05 -4.94987e-19)
(0.000911209 0.000543248 -7.85142e-20)
(0.000145367 0.000791039 0)
(0.000581951 6.48005e-05 0)
(0.000275503 5.32961e-05 -1.60976e-18)
(6.29644e-05 5.81299e-05 -1.37417e-18)
(3.055e-05 2.03708e-05 0)
(0.00424701 0.00740002 -1.01947e-20)
(0.00422543 0.00737196 3.16391e-20)
(0.00442765 0.00757474 -4.95953e-21)
(0.0042067 0.00773517 0)
(0.00419907 0.00760099 5.77132e-19)
(0.00424421 0.00740138 -9.19753e-20)
(0.0042104 0.00804287 4.84365e-19)
(0.00428929 0.00742187 0)
(0.00420862 0.00853609 6.16648e-19)
(0.00432569 0.00745026 2.23862e-19)
(0.000823665 6.85655e-06 -1.37385e-18)
(0.000769319 5.35596e-05 0)
(0.000213597 5.22604e-05 1.27701e-19)
(4.99498e-05 1.55817e-05 8.71894e-20)
(7.74389e-05 4.42909e-05 6.80056e-19)
(0.000105128 4.05612e-05 -3.41687e-19)
(9.93434e-05 4.8339e-06 0)
(4.77375e-05 4.73231e-06 8.1842e-20)
(0.00020616 0.000132112 0)
(0.000165145 4.14054e-05 -5.24317e-20)
(0.000343326 0.000222175 -5.09277e-21)
(5.54633e-05 4.25095e-05 -4.37678e-19)
(8.99786e-05 2.66977e-05 -8.52519e-20)
(8.98487e-05 6.12252e-05 1.31202e-21)
(0.000255634 0.00036604 -6.662e-19)
(0.000107048 0.00100242 0)
(4.17175e-05 5.2188e-05 3.4308e-19)
(0.000200202 0.0017514 0)
(0.000207685 0.000253123 7.04691e-19)
(3.74123e-05 -3.7373e-06 1.11501e-19)
(0.000483303 0.000163963 -1.7231e-19)
(0.000760971 2.41222e-05 -1.92424e-18)
(4.23129e-05 -1.28e-06 4.47632e-24)
(0.000147579 2.37458e-05 2.24602e-19)
(0.000244048 9.17619e-05 -8.99375e-20)
(0.000881264 0.0007046 3.34955e-19)
(0.0007209 0.00163427 -9.23603e-21)
(0.000395843 0.00142363 -9.39514e-21)
(0.00102425 0.000547841 0)
(0.000101431 -1.59238e-05 1.11877e-18)
(0.000114993 1.48956e-05 -4.43171e-20)
(0.000455368 -0.000287302 -1.13612e-18)
(0.000814334 3.90109e-05 0)
(0.000181207 9.1271e-07 3.6332e-19)
(0.000300435 0.00131138 0)
(0.00107845 0.000773813 -7.3023e-20)
(0.000826524 3.34609e-05 -1.86571e-19)
(7.63302e-05 -2.13981e-05 -2.99998e-19)
(0.000828602 0.000319332 -2.08059e-20)
(5.59393e-05 -2.14061e-05 -5.99534e-19)
(0.000226349 0.000174948 8.63918e-20)
(0.000229709 0.00030887 -3.45026e-19)
(0.000885736 0.000247914 0)
(0.000815322 5.15721e-05 0)
(0.00026334 0.000135717 1.76856e-19)
(0.000233883 6.46756e-07 3.4737e-24)
(0.000184446 0.00020553 0)
(0.000295064 0.000653106 -5.55722e-21)
(0.000348004 -6.24058e-06 0)
(0.000371824 0.000599929 0)
(0.000108347 8.16111e-05 -1.34677e-21)
(0.000809925 2.81529e-05 -9.39427e-19)
(0.000807864 1.98405e-05 7.97634e-19)
(0.000128257 5.6675e-05 -1.49864e-19)
(0.000958641 0.000149925 8.50576e-20)
(0.000836824 4.28988e-05 3.33096e-19)
(0.000816757 2.72586e-05 -2.94137e-19)
(0.00101968 0.000414009 0)
(0.000438659 0.000119024 6.2447e-19)
(0.000898759 0.000320519 2.0915e-20)
(0.000577459 0.000156003 0)
(0.00027187 0.000446991 4.09657e-19)
(0.000261568 0.000216614 -8.44215e-20)
(0.00109554 0.000378205 -7.82176e-19)
(0.000624055 0.000104722 -1.79302e-19)
(0.00080976 7.30148e-05 -7.45368e-21)
(0.0008405 2.90082e-05 9.39776e-20)
(7.62679e-05 -8.73935e-05 -1.98149e-18)
(0.000738786 0.000381602 2.19245e-19)
(0.000668695 6.35572e-05 2.30642e-20)
(0.000706946 0.000279328 1.60146e-23)
(0.00072983 0.000459777 -4.09699e-19)
(0.000845784 2.90319e-05 9.06704e-20)
(7.1564e-05 7.92777e-05 0)
(0.000656179 0.000419768 -4.65941e-20)
(0.000183473 9.46383e-05 0)
(0.000374464 0.000501744 -2.64848e-19)
(0.000309913 0.000167252 0)
(0.000674902 0.0002044 3.55248e-19)
(0.00064959 0.000260029 -4.37276e-20)
(8.12657e-05 0.000103545 6.1919e-19)
(0.000875939 9.31372e-05 -1.62296e-18)
(5.72924e-05 2.16825e-05 2.57206e-19)
(0.000886391 6.84646e-05 -1.68522e-18)
(0.00084016 8.84808e-05 1.63017e-19)
(0.000809691 3.25937e-05 1.89248e-18)
(0.000815373 3.29057e-05 -1.32861e-19)
(0.000736325 7.24725e-05 0)
(0.000806055 2.55157e-05 8.95666e-19)
(0.000959254 0.00023051 -4.27128e-19)
(0.000773008 9.36342e-05 -4.83744e-19)
(0.000778478 0.000231624 -8.81275e-20)
(0.000212772 -0.00016507 -2.07895e-18)
(0.00074671 8.04941e-05 8.8755e-19)
(0.000640307 0.000595873 0)
(8.88548e-05 -0.000116619 0)
(0.00122039 0.000471927 4.97272e-19)
(0.000625335 -6.14717e-05 -3.26054e-18)
(0.00134323 0.000417695 5.76444e-19)
(0.00124072 0.000717775 -6.38745e-20)
(0.000811427 3.05316e-05 -2.11274e-19)
(0.00083533 6.72155e-05 -1.42523e-18)
(0.000814564 2.57158e-05 1.57872e-18)
(0.000816968 2.75941e-05 9.78292e-20)
(0.000669629 0.000352137 -4.40424e-20)
(0.000101492 0.000122795 5.69474e-24)
(0.000750664 -4.01023e-05 2.651e-19)
(0.000217271 -0.000259986 -7.32617e-19)
(0.000623279 0.000186304 0)
(0.00070874 4.49319e-05 9.90461e-20)
(0.00069386 9.99592e-06 -3.80834e-19)
(0.00038912 0.00017068 3.93381e-20)
(0.000806212 0.000505828 -1.65482e-19)
(0.000148655 7.49413e-05 3.15365e-25)
(0.000811431 0.000411368 0)
(0.000979277 0.000318432 4.15795e-20)
(0.000755992 -7.56457e-05 -6.16266e-19)
(0.000348108 0.000105122 4.97828e-19)
(0.000903713 0.000425488 0)
(4.89614e-05 3.10104e-05 1.33718e-19)
(0.000483528 0.000267555 2.13959e-19)
(0.000507571 -0.000150174 -7.09551e-19)
(0.000131206 -0.000161238 -1.05699e-18)
(0.000823832 3.22297e-05 -4.86858e-19)
(0.000776136 -8.73808e-05 -1.94294e-19)
(0.00054865 0.00072909 -1.17442e-18)
(0.000846791 4.69291e-05 -6.7428e-20)
(0.000629724 -2.27239e-05 1.27555e-18)
(0.00070257 9.95301e-05 2.27793e-20)
(0.000531331 0.000209615 -1.65691e-19)
(3.10682e-05 -2.16552e-05 -8.75883e-20)
(0.000167526 -4.44536e-05 2.4062e-18)
(1.82153e-05 7.24898e-07 -1.94849e-19)
(0.000827063 0.000112719 3.63765e-19)
(0.000662838 0.000136386 0)
(0.000186048 -8.63977e-05 -1.04818e-18)
(0.000120939 -1.83205e-05 3.12928e-19)
(0.000108332 -3.62153e-05 1.24664e-23)
(0.000797713 0.000106475 -3.19279e-19)
(0.000152782 -1.29545e-05 0)
(0.000584552 0.000241877 0)
(0.000111254 0.000329733 -3.62864e-19)
(0.000860084 0.00010039 2.09653e-18)
(1.48468e-05 1.10252e-06 0)
(0.000878236 5.29343e-05 0)
(4.33469e-05 -2.59526e-05 0)
(0.000815419 4.54335e-05 -4.4685e-21)
(0.000789987 -4.53372e-05 0)
(0.00425982 0.00740628 8.06814e-20)
(0.0043614 0.00748598 1.43307e-19)
(0.000843944 -5.76061e-06 0)
(0.000785903 -4.78688e-05 8.09951e-19)
(0.00015267 0.000124578 1.49215e-19)
(0.000852391 6.86324e-05 8.0766e-19)
(0.000129824 0.000101391 2.34405e-20)
(0.000779077 -2.88044e-05 6.24476e-19)
(3.47432e-05 9.62543e-06 0)
(2.82744e-05 -1.35798e-05 -4.48502e-20)
(0.000896004 4.9281e-05 -4.86587e-19)
(3.31505e-05 -3.20217e-05 -6.69835e-19)
(0.000755865 0.000121448 -4.23261e-20)
(0.000168367 0.000162363 -1.88106e-19)
(0.000814449 2.74492e-05 0)
(0.00468252 0.00815353 9.00153e-22)
(0.000179692 0.000787669 3.33519e-19)
(0.000116707 -5.86275e-05 -9.1457e-19)
(6.07819e-05 -3.5127e-05 -1.16881e-18)
(0.000645123 1.40733e-05 1.8986e-20)
(0.000580757 0.000408412 0)
(0.000418165 0.000442576 -2.5634e-19)
(8.40235e-05 -6.00389e-05 1.18374e-18)
(0.000603188 5.24189e-07 7.70279e-20)
(4.19275e-05 1.86372e-06 4.07115e-19)
(0.000699044 -5.26081e-05 1.1717e-18)
(0.000810551 3.24097e-05 -5.9594e-19)
(6.51883e-05 -5.52157e-05 1.70936e-18)
(0.000842491 -2.35977e-05 -5.62422e-24)
(0.000621647 6.91753e-06 -3.76519e-20)
(0.000866662 6.90807e-05 0)
(0.000838274 3.90286e-05 0)
(0.00591718 0.00723962 2.59563e-19)
(1.89968e-05 -2.18535e-06 -1.19586e-19)
(0.000126673 -0.000101285 7.73011e-19)
(0.000723704 0.000118441 -6.96476e-19)
(2.20724e-05 -5.90629e-08 2.01519e-19)
(0.00061961 -3.49533e-05 -7.23856e-19)
(0.000742154 3.70985e-05 1.55814e-18)
(0.000703396 0.000159421 -3.55454e-19)
(0.000807693 -1.27809e-05 3.60602e-19)
(7.64425e-05 -3.39173e-05 1.11606e-18)
(0.00079957 7.10908e-06 -3.22709e-19)
(0.000865831 4.19889e-05 0)
(0.000540429 0.000303277 4.21034e-20)
(0.000855981 5.07243e-05 -9.46307e-19)
(1.95462e-05 2.3317e-06 9.11281e-19)
(0.000852138 4.64649e-05 9.65554e-19)
(0.000856204 7.79672e-06 -9.60226e-19)
(0.000748151 -1.8686e-06 -5.69211e-19)
(0.000519333 -7.14359e-05 -5.25675e-19)
(0.00432862 0.00745242 2.46965e-19)
(0.00422354 0.00752945 -2.53964e-19)
(0.00422146 0.00758758 2.66706e-19)
(0.00425574 0.00741052 1.97916e-19)
(0.000844968 -2.64123e-05 1.44025e-19)
(0.00447521 0.00751172 0)
(0.00440285 0.00751648 -3.86759e-19)
(3.01387e-05 -1.33902e-07 -9.98117e-19)
(0.00417054 0.0074694 -6.33496e-20)
(0.00414586 0.00743242 -2.21457e-19)
(0.00602989 0.0106066 0)
(0.00654051 0.0111876 3.71288e-20)
(0.00600984 0.0105763 0)
(0.00655621 0.0112112 1.30821e-19)
(0.00599721 0.0106003 2.69645e-19)
(0.00659287 0.011228 1.24537e-20)
(0.00593585 0.0106131 -7.76631e-19)
(0.00662311 0.0111469 8.14391e-21)
(0.00390377 0.00920028 -1.90843e-19)
(0.00418686 0.00748853 3.89894e-21)
(0.00423813 0.00755288 7.93386e-20)
(0.00415031 0.00743469 4.1193e-20)
(0.000876849 0.000191334 4.46767e-20)
(1.05357e-05 1.50244e-06 0)
(0.000700318 -0.000123162 0)
(0.000666319 5.00078e-05 0)
(0.00244422 0.00110885 4.24163e-21)
(0.000754131 -3.16313e-05 1.72593e-19)
(4.04328e-05 5.77196e-06 4.54079e-20)
(1.06656e-05 -2.75041e-05 1.65331e-18)
(0.000849893 1.49094e-05 0)
(2.78726e-05 1.26761e-05 -1.91738e-19)
(0.000140354 0.000223521 0)
(1.84026e-05 -1.03667e-06 0)
(1.49554e-05 -1.37733e-06 0)
(0.000821512 0.000138346 1.13726e-20)
(0.000810388 -1.69079e-05 1.79344e-19)
(3.63236e-05 0.000275336 -1.7428e-23)
(0.00015795 0.00027317 -1.84201e-18)
(0.000601834 0.000329713 -8.5704e-20)
(0.000896296 0.000110504 6.00415e-19)
(0.000661886 -0.00022417 6.73011e-19)
(0.000363522 0.00110916 0)
(0.000470181 0.000574906 2.71536e-18)
(9.0599e-05 0.000146322 -1.80316e-18)
(2.28483e-05 7.8345e-08 0)
(0.000820885 -5.67487e-05 3.63221e-20)
(1.65526e-05 3.64591e-05 1.64458e-18)
(0.000899479 3.17004e-05 2.71211e-19)
(-1.36762e-05 -8.83144e-07 3.80548e-18)
(0.000929875 3.97195e-05 -2.69068e-19)
(0.00135366 0.000151511 7.47263e-19)
(3.56454e-05 -1.07922e-05 8.25759e-20)
(3.7056e-05 3.94817e-06 -8.59118e-19)
(5.06261e-05 0.000143206 0)
(0.000908302 7.93509e-05 5.98592e-19)
(0.000493226 0.000368198 2.37155e-19)
(0.000669268 1.79048e-05 -3.89172e-20)
(0.00077654 -4.71333e-06 2.57223e-19)
(0.000736144 -0.000184149 0)
(0.00632152 0.0108968 -1.68027e-19)
(0.00637926 0.0109743 4.05753e-19)
(0.00616064 0.0107316 -6.18326e-19)
(0.00650157 0.011133 -8.0965e-20)
(3.47755e-05 0.000119382 8.00581e-19)
(0.000918108 5.96273e-05 1.46138e-22)
(0.00641179 0.0110067 -3.86385e-19)
(0.0062825 0.0108465 5.48359e-19)
(0.00608076 0.0106734 -4.16757e-19)
(0.00652206 0.0111653 -6.81271e-20)
(8.06314e-05 0.00050893 -2.01825e-20)
(8.70686e-05 -0.000203223 -7.93546e-19)
(0.000677391 -2.06161e-05 -7.64064e-19)
(0.000723082 0.000220463 0)
(0.000799943 6.02088e-07 0)
(0.000185738 0.000391053 3.36314e-19)
(0.000597272 0.000516628 -5.419e-19)
(1.03543e-05 -1.74258e-06 1.78409e-19)
(0.000201667 0.000466952 -7.38429e-19)
(0.0010075 0.00097106 -1.12684e-19)
(0.000741841 0.000166155 0)
(0.000786812 0.000182977 1.31031e-19)
(0.00635452 0.00587846 1.13132e-18)
(0.000740339 0.00112702 8.26584e-20)
(3.91541e-05 3.85501e-05 -7.44742e-20)
(0.000811142 1.53953e-05 0)
(0.000874963 2.61618e-05 -3.56939e-20)
(3.52977e-05 3.43473e-06 -1.9672e-19)
(3.05139e-05 4.85323e-06 1.93005e-19)
(0.000832448 1.97609e-05 5.3727e-19)
(0.000970607 0.000108649 6.58392e-19)
(0.000573465 3.81901e-05 0)
(0.000222353 -0.000302231 -3.98061e-19)
(0.000914016 0.000148169 3.89634e-19)
(1.44005e-05 -6.29501e-05 2.03133e-19)
(0.0014486 0.00044257 -2.58131e-18)
(0.000603253 -6.97985e-06 0)
(0.000790061 0.000144314 3.75501e-19)
(9.41156e-05 0.000396476 0)
(0.00118749 0.00816245 4.62173e-19)
(0.000488209 0.000500373 -1.22462e-18)
(0.000542108 0.00100582 -1.83763e-19)
(0.000879707 1.87624e-05 -1.46064e-19)
(1.35479e-05 2.58075e-05 0)
(0.000943548 7.70666e-05 6.11764e-19)
(0.00410629 0.0073954 8.14084e-20)
(0.00417141 0.00747391 4.72924e-20)
(0.00449891 0.00751442 4.5399e-19)
(0.00444425 0.00754062 -3.29149e-19)
(0.00647552 0.01111 8.10426e-20)
(0.00391486 0.00714596 -9.70964e-22)
(0.00550729 0.00779625 -5.64677e-19)
(0.00409788 0.00737157 5.21799e-21)
(0.00518782 0.00785619 5.11602e-19)
(0.00407967 0.00734002 -4.87023e-20)
(0.00495282 0.00771554 0)
(0.00408495 0.00736441 -8.56322e-20)
(0.00474148 0.00758689 4.92441e-19)
(0.00409821 0.00737604 8.74929e-20)
(0.00457406 0.00752648 0)
(0.00428335 0.00742045 1.39723e-19)
(0.00423966 0.00759915 5.80135e-19)
(0.00446665 0.00752599 -5.54986e-19)
(0.00438711 0.00750409 3.71327e-19)
(0.00422813 0.00752534 2.88333e-19)
(0.00643095 0.0110434 -4.97548e-21)
(0.00411774 0.00740153 3.1153e-20)
(0.00645901 0.0110732 0)
(2.46518e-05 6.1134e-06 -1.89875e-19)
(0.00199974 0.00654337 2.28292e-19)
(0.000839651 -4.55266e-05 1.09652e-19)
(0.000856898 9.98649e-06 0)
(1.74511e-06 1.52484e-06 -3.99143e-19)
(-1.03105e-06 -0.000140099 6.91998e-19)
(2.44863e-05 5.75711e-05 2.08915e-18)
(0.000825851 0.000179753 -9.00811e-20)
(0.000799776 9.55567e-06 7.06458e-19)
(1.62136e-06 -1.39648e-06 3.10014e-19)
(1.9504e-05 -3.49185e-05 -1.84582e-18)
(0.000761887 2.76054e-05 1.63167e-19)
(0.000866605 0.00012415 -3.08017e-20)
(0.000800206 -9.10515e-06 1.48151e-19)
(0.000411621 0.000679381 0)
(5.01969e-05 -0.000148 1.15158e-18)
(0.000861992 9.16421e-06 1.52528e-19)
(2.02909e-05 2.43097e-05 0)
(0.000114202 0.000561513 -6.31267e-19)
(0.000606918 0.000595352 1.31802e-18)
(0.000326392 0.000749314 0)
(0.00080085 -1.71324e-05 0)
(0.000800522 3.06981e-06 1.17471e-18)
(1.80716e-05 4.98197e-05 -3.51521e-18)
(1.71299e-05 7.50152e-06 3.73652e-19)
(0.000116063 0.000146311 0)
(4.67128e-05 -4.13889e-05 0)
(6.25089e-05 0.000113478 2.01014e-19)
(0.000934267 0.000186775 3.50464e-19)
(0.000799881 1.59507e-05 -1.39647e-18)
(2.32038e-05 3.37754e-05 0)
(0.000466595 1.16246e-05 -6.03968e-20)
(0.000801281 3.9134e-05 -1.56358e-19)
(0.000840003 3.47129e-05 1.06378e-18)
(0.00025809 0.000542479 6.32266e-19)
(0.000872786 0.000156124 0)
(1.98884e-05 -2.44331e-05 5.38718e-19)
(2.7304e-06 -6.42991e-06 -3.19992e-19)
(0.000984814 3.09091e-05 0)
(0.00103348 0.00226296 0)
(0.000944148 -7.00564e-06 0)
(0.00100021 0.000206417 4.27219e-19)
(0.000816829 -3.30818e-05 -2.83834e-19)
(0.000928015 0.000109653 -6.84838e-19)
(0.00080034 3.33534e-06 0)
(4.22493e-05 6.97745e-05 -1.71579e-19)
(0.000174219 0.000327644 1.0812e-18)
(0.000798549 1.65104e-05 -1.66888e-23)
(0.00108791 0.000208924 -6.69028e-19)
(0.00109035 0.000124831 0)
(2.64606e-06 6.73659e-06 2.5105e-19)
(1.91567e-05 -1.58613e-05 -1.9433e-19)
(0.00058041 3.86963e-05 6.95072e-21)
(1.29886e-05 -8.28763e-05 0)
(0.00105831 0.000253649 9.50123e-19)
(0.00502885 0.00974933 -2.83012e-19)
(0.00312115 0.00961916 1.27237e-18)
(4.53146e-05 -0.000107433 -1.91357e-19)
(5.78193e-05 -7.60912e-05 1.85968e-18)
(0.0011917 0.000244138 1.67323e-19)
(0.00132768 0.00108043 2.34101e-19)
(0.000812026 2.39794e-07 -7.3257e-19)
(0.000199161 0.000952052 -2.38308e-19)
(0.00081278 0.000931325 -2.18597e-19)
(0.000799912 -2.9438e-06 0)
(8.5424e-05 0.000628542 0)
(9.57367e-05 0.000283081 -4.02669e-23)
(0.000719844 -4.13631e-05 -1.67985e-23)
(0.000821811 6.3924e-05 1.52628e-19)
(0.00263069 0.00206306 -1.23134e-18)
(0.00175941 0.00923924 -1.17195e-19)
(0.000834205 5.12131e-05 4.92261e-19)
(0.00632795 0.00404658 -1.75924e-19)
(0.00672107 0.0115578 -1.36409e-20)
(0.00473417 0.0078438 4.92676e-21)
(0.000801723 1.37061e-05 -2.19287e-18)
(0.000835835 1.00189e-05 4.62549e-24)
(9.38711e-06 -7.97135e-06 -3.48048e-19)
(4.6661e-05 9.08572e-05 -3.49307e-19)
(6.74445e-05 0.000271758 8.7533e-19)
(1.14399e-05 1.65795e-05 4.90449e-19)
(8.96743e-05 0.000231593 3.69792e-19)
(0.000822423 2.49601e-05 0)
(0.00534811 0.00949244 1.95073e-20)
(0.00153197 0.000633671 -2.61166e-20)
(0.00081992 3.41341e-05 3.60167e-19)
(3.69015e-05 -8.3743e-05 0)
(0.00184794 0.000740906 5.46041e-19)
(9.85237e-06 7.8868e-06 -2.70178e-19)
(3.44266e-05 2.9012e-05 9.71907e-20)
(0.00132585 0.00139524 6.36604e-19)
(0.000736144 4.7507e-05 1.83121e-19)
(5.54727e-06 -1.79201e-06 -1.70219e-19)
(0.0020629 0.00155734 -1.05596e-18)
(0.000126511 0.000180093 -8.18809e-19)
(0.00392152 0.00848752 -1.09094e-18)
(5.91769e-06 1.69207e-06 8.81504e-20)
(0.000139055 -0.000129418 -1.25623e-18)
(5.03168e-05 -5.79874e-05 4.05684e-20)
(0.00152645 0.000979863 0)
(0.00103845 0.000138755 -4.06463e-22)
(0.000454186 0.000849491 -4.02088e-20)
(0.000802723 2.71606e-05 -2.34077e-19)
(8.71385e-05 0.000186284 7.36121e-19)
(3.3561e-05 -6.28233e-05 4.04051e-19)
(1.87812e-05 1.56214e-05 -9.47186e-20)
(3.21801e-05 9.37639e-05 -3.20316e-19)
(0.000204956 -0.000265634 -5.45048e-19)
(0.00325137 0.00345829 2.84047e-21)
)
;

boundaryField
{
    back
    {
        type            empty;
    }
    ingreso
    {
        type            fixedValue;
        value           uniform (0.0008 0 0);
    }
    salida
    {
        type            zeroGradient;
    }
    front
    {
        type            empty;
    }
    defaultFaces
    {
        type            noSlip;
    }
}


// ************************************************************************* //
