/*--------------------------------*- C++ -*----------------------------------*\
  =========                 |
  \\      /  F ield         | OpenFOAM: The Open Source CFD Toolbox
   \\    /   O peration     | Website:  https://openfoam.org
    \\  /    A nd           | Version:  7
     \\/     M anipulation  |
\*---------------------------------------------------------------------------*/
FoamFile
{
    version     2.0;
    format      ascii;
    class       volScalarField;
    location    "20.5";
    object      p;
}
// * * * * * * * * * * * * * * * * * * * * * * * * * * * * * * * * * * * * * //

dimensions      [0 2 -2 0 0 0 0];

internalField   nonuniform List<scalar> 
591
(
0.000123916
0.000123931
0.000123951
0.000123915
0.000123916
0.000124023
0.000123971
0.00012395
0.000116837
0.000123945
0.000124095
0.000122802
0.000124001
0.000119695
0.000123953
0.000123979
0.000123855
0.000123982
0.000121922
0.000123329
0.000123915
-2.76592e-06
0.000124094
0.000123917
0.000124051
0.000123928
0.000123986
0.000124017
0.000123939
0.000123986
0.000124071
0.000124047
0.000124067
0.000124065
0.000124068
0.000123424
0.000124063
0.000123932
0.000124088
0.000124
0.00012399
0.00012406
0.000123941
0.000123969
0.000124057
0.000124074
0.000119227
0.000124078
0.000123956
0.000124056
0.000124011
0.000124053
2.37606e-05
3.03444e-05
4.77354e-05
0.000123975
0.000124082
0.000124063
0.000124076
0.000123915
0.00012399
0.000123937
0.000123945
0.000124036
0.000122539
0.000123939
0.000123945
0.000124073
0.000120668
0.000123973
0.000123942
0.00012408
0.000124037
0.00012406
0.000124066
0.00012404
0.000123908
0.000124076
0.000123913
0.000123829
0.000123699
0.000124081
0.000124044
0.000124011
0.000124089
0.000123922
0.000124011
0.000124071
0.000124035
0.0001238
0.000124049
0.000123979
0.000124008
0.000123925
0.000124088
0.000124048
0.00012363
0.000123524
0.000123637
0.000124091
0.000124002
0.000123924
0.000124095
0.00012392
0.000124093
0.000123947
0.000123934
0.000124044
0.000124086
0.00012409
0.000123974
0.000124061
0.000123962
0.000124069
0.00012409
0.000124069
0.000124011
0.000124021
0.000123562
0.000123976
0.000123943
0.000124016
0.000123971
0.000123928
0.000124066
0.000120165
0.000124094
0.000124064
0.000123701
0.000124067
0.000123931
0.000123624
0.000124029
0.000124027
0.00012407
0.00012396
0.000122595
0.000124095
0.000123942
0.00012357
0.00012363
0.000124001
0.000124071
0.000124087
0.000124082
7.63826e-06
4.04968e-06
2.54754e-06
3.80339e-05
3.65356e-05
5.87227e-06
3.81867e-05
1.54878e-05
3.71556e-05
1.75778e-05
0.00012394
0.00012392
0.00012408
0.000124078
0.000124084
0.000124081
0.000124075
0.000124073
0.000124076
0.000124077
0.000124035
0.000124085
0.00012408
0.000124085
0.000124011
0.000123369
0.000124087
0.000122074
0.000124057
0.000124069
0.00012401
0.000123942
0.000124069
0.000124078
0.000124074
0.000123478
0.000122426
0.000123015
0.000123441
0.000124072
0.000124076
0.000124039
0.000123917
0.000124069
0.000122919
0.000123292
0.00012392
0.000124069
0.000123772
0.000124062
0.000124068
0.000124037
0.000123742
0.000123902
0.000124067
0.00012408
0.00012407
0.00012386
0.000124052
0.000123859
0.000124086
0.000123945
0.000123939
0.000124082
0.000123716
0.000123908
0.000123962
0.000123548
0.000124034
0.000123697
0.00012398
0.000123974
0.000124056
0.000123472
0.000123976
0.000123889
0.000123909
0.000124041
0.000123805
0.00012397
0.000123876
0.000123778
0.0001239
0.000124089
0.000123842
0.000124082
0.000123913
0.000124056
0.00012392
0.000123915
0.000124088
0.000123826
0.000124079
0.000123824
0.000123872
0.000123958
0.000123927
0.000123942
0.000123944
0.000123689
0.000123904
0.000123847
0.000124047
0.000123929
0.000123745
0.000124035
0.000123302
0.000123868
0.000123231
0.00012306
0.000123933
0.000123893
0.000123925
0.000123921
0.00012386
0.000124086
0.00012396
0.00012403
0.000123951
0.000123965
0.000123976
0.000124035
0.000123693
0.000124081
0.000123736
0.000123629
0.000123953
0.000124058
0.000123642
0.000124083
0.000123981
0.000124028
0.00012404
0.000123964
0.000123907
0.000123694
0.000123895
0.000123907
0.000123947
0.000123981
0.000124056
0.000124066
0.000124076
0.000123863
0.00012395
0.000124059
0.000124069
0.000124066
0.000123884
0.00012408
0.00012395
0.000124049
0.000123848
0.000124079
0.000123845
0.000124056
0.000123987
0.000123911
1.13984e-05
2.17523e-05
0.000123896
0.000123938
0.000124084
0.000123877
0.000124084
0.000123949
0.000124078
0.000124058
0.000123841
0.000124052
0.000123901
0.000124079
0.000123954
-1.47277e-07
0.000123751
0.000124059
0.000124056
0.0001238
0.000123897
0.000123923
0.000124051
0.000123866
0.000124073
0.000123975
0.000123948
0.000124049
0.000123916
0.000123835
0.000123858
0.000123967
4.72762e-05
0.000124067
0.00012405
0.000123927
0.000124073
0.000123998
0.000123953
0.000123923
0.000123937
0.00012406
0.000124011
0.000123872
0.000123945
0.000123877
0.000124074
0.000123883
0.000123914
0.000123958
0.000124038
1.96695e-05
2.7063e-05
3.40807e-05
9.49774e-06
0.000123918
3.27993e-05
2.58089e-05
0.000124071
1.877e-05
1.6696e-05
3.80328e-05
7.57589e-06
3.98389e-05
5.77608e-06
4.0742e-05
3.99963e-06
4.27024e-05
2.25428e-06
3.62316e-05
2.29638e-05
2.92036e-05
1.4653e-05
0.000123779
0.000124081
0.000123977
0.000123996
0.000120879
0.000124086
0.000124076
0.000124047
0.000123897
0.000124081
0.000124073
0.000124064
0.000124061
0.000123843
0.000123932
0.000124057
0.000124061
0.000123905
0.000123803
0.000123774
0.000123379
0.000123846
0.000124092
0.000124068
0.000123947
0.000124091
0.000123799
0.000123933
0.000123753
0.000122861
0.000124062
0.000124072
0.000124088
0.000123794
0.000123939
0.000123758
0.000123951
0.000123919
2.57891e-05
2.17134e-05
3.28292e-05
1.1366e-05
0.000124097
0.000123806
1.96068e-05
2.79638e-05
3.54155e-05
9.44788e-06
0.000123904
0.000124018
0.000123899
0.000123887
0.000124003
0.000124018
0.000123808
0.000124059
0.000123981
0.000123077
0.000123894
0.000123863
5.91273e-05
0.000123208
0.000124085
0.000123936
0.000123835
0.000124074
0.000124077
0.000123924
0.000123706
0.000123954
0.000124005
0.00012378
0.00012403
0.000122905
0.000123895
0.000123876
0.000124025
0.000100729
0.000123869
0.000123473
0.000123867
0.000124088
0.000123763
1.07309e-05
2.0858e-05
3.5232e-05
2.78827e-05
1.33356e-05
5.23544e-07
4.19129e-05
3.10506e-06
4.0001e-05
4.95506e-06
3.92702e-05
6.83999e-06
3.85051e-05
8.7977e-06
3.71967e-05
1.33837e-05
3.1504e-05
3.0225e-05
2.37949e-05
2.5026e-05
1.74809e-05
1.26541e-05
1.53555e-05
0.00012408
0.00010234
0.00012392
0.000123867
0.000124084
0.000123981
0.00012409
0.000123823
0.000124022
0.000124054
0.000124048
0.000124133
0.000123825
0.000123991
0.000123788
0.000124019
0.000123894
0.000124084
0.000123931
0.000123765
0.000123766
0.000124002
0.000124025
0.000124093
0.000124082
0.000124086
0.000124052
0.00012409
0.000123739
0.000123945
0.000124086
0.000123889
0.000124063
0.000123942
0.000123932
0.000123806
0.000124052
0.000124052
0.000123389
0.000121338
0.000123123
0.000123654
0.000123942
0.000123766
0.00012401
0.000124088
0.000124042
0.00012397
0.000123546
0.000123539
0.000124086
0.000124055
0.000123976
0.000124017
0.000123578
5.81942e-05
3.99576e-05
0.000124025
0.000124043
0.00012343
0.000122726
0.000123933
0.000123605
0.000123356
0.00012399
0.000123794
0.000124064
0.000123962
0.000124006
0.000118962
5.43421e-05
0.000123977
8.10505e-05
1.86739e-06
-6.31453e-08
0.000123942
0.000123918
0.000124054
0.000124089
0.000124076
0.000124086
0.000124076
0.000123929
-2.04173e-06
0.000122822
0.00012396
0.000124033
0.000121988
0.000124084
0.000124084
0.000122241
0.000124042
0.000124056
0.000121663
0.000124081
7.62366e-05
0.000124083
0.000123528
0.000124046
0.000122353
0.000123639
0.000123652
0.000123978
0.000124084
0.00012404
0.000124083
0.000124096
0.000123943
0.000116124
)
;

boundaryField
{
    back
    {
        type            empty;
    }
    ingreso
    {
        type            zeroGradient;
    }
    salida
    {
        type            fixedValue;
        value           uniform 0;
    }
    front
    {
        type            empty;
    }
    defaultFaces
    {
        type            zeroGradient;
    }
}


// ************************************************************************* //
