/*--------------------------------*- C++ -*----------------------------------*\
  =========                 |
  \\      /  F ield         | OpenFOAM: The Open Source CFD Toolbox
   \\    /   O peration     | Website:  https://openfoam.org
    \\  /    A nd           | Version:  7
     \\/     M anipulation  |
\*---------------------------------------------------------------------------*/
FoamFile
{
    version     2.0;
    format      ascii;
    class       volVectorField;
    location    "20.5";
    object      U;
}
// * * * * * * * * * * * * * * * * * * * * * * * * * * * * * * * * * * * * * //

dimensions      [0 1 -1 0 0 0 0];

internalField   nonuniform List<vector> 
591
(
(0.000807184 -4.92422e-05 1.22631e-18)
(0.000769542 -3.93824e-05 -6.5837e-19)
(0.00084318 -6.54873e-05 5.76103e-20)
(0.000829227 1.21695e-05 -1.47636e-19)
(0.000816173 1.94273e-05 2.226e-19)
(0.000746085 -2.64931e-05 -1.38394e-19)
(0.000529432 -0.000392456 7.94495e-19)
(0.000797005 -8.8455e-06 2.07991e-18)
(0.0057697 0.00248874 9.8627e-19)
(0.000777663 -2.36822e-05 2.37814e-18)
(6.33683e-05 0.000179758 1.21707e-18)
(0.000886696 0.00126941 9.40282e-21)
(0.000782845 1.32896e-05 1.2884e-18)
(0.00155064 0.00234405 -7.86732e-19)
(0.000795707 3.30312e-05 -4.38116e-19)
(0.000145523 -0.000259152 2.55109e-22)
(0.000130169 0.000662377 7.0513e-19)
(0.000838209 1.85406e-05 -4.92465e-19)
(0.00201164 0.000385023 4.73496e-19)
(0.00133699 0.000298116 -2.47028e-19)
(0.000824919 1.90085e-05 3.6889e-19)
(0.00334722 0.00682591 -6.26738e-20)
(3.87134e-05 7.77044e-05 2.70743e-19)
(0.000816461 9.82985e-06 -4.45167e-19)
(1.93736e-05 -2.44249e-05 3.58883e-19)
(0.000760995 2.29921e-05 0)
(8.91049e-05 0.00047951 1.59932e-19)
(0.000509846 3.3499e-05 -1.78878e-19)
(0.000740451 6.01991e-05 1.13444e-18)
(0.000820986 -6.02244e-06 5.8911e-19)
(6.90291e-05 -8.17982e-08 -1.98019e-24)
(4.87922e-05 -5.53711e-05 3.52219e-19)
(4.78895e-05 -4.56707e-06 -4.63958e-20)
(5.68196e-05 -9.12458e-06 0)
(6.40955e-05 -1.54568e-05 1.12977e-18)
(0.00116015 0.00013329 1.80034e-19)
(4.16587e-05 -7.72513e-06 4.47199e-20)
(0.000816015 1.59111e-05 4.72477e-23)
(3.66788e-05 5.30357e-05 2.65988e-19)
(6.96275e-05 -0.000153376 -8.54279e-19)
(0.000533268 -0.000173207 9.5656e-19)
(3.47304e-05 -1.01453e-05 4.54875e-20)
(0.000792988 -8.21792e-06 -1.55579e-18)
(0.000817507 1.10357e-05 -6.75884e-19)
(2.53093e-05 -1.2202e-05 0)
(6.46072e-05 1.17645e-05 8.51952e-20)
(0.00133086 0.00451617 8.92203e-19)
(8.71145e-05 2.4313e-05 8.63694e-20)
(0.00078716 4.07199e-05 0)
(0.00036238 -0.000130599 6.78079e-19)
(0.000367472 0.000281387 5.11911e-21)
(0.00038252 7.9228e-05 -1.00394e-18)
(0.00634545 0.0109391 -7.62399e-19)
(0.00623078 0.0107948 1.5558e-20)
(0.00560584 0.0103679 1.45162e-18)
(0.000805215 -3.60745e-05 0)
(7.57612e-05 3.92126e-05 0)
(0.000328759 3.43552e-05 9.85138e-24)
(7.34103e-05 1.63203e-05 -3.46489e-19)
(0.000846946 -6.36404e-06 0)
(0.000602811 2.63031e-05 3.17645e-19)
(0.000799918 6.11584e-06 2.14835e-18)
(0.000763944 -2.55781e-06 -5.42283e-19)
(0.000756853 1.73061e-05 -3.12557e-19)
(0.00171063 0.000535072 5.44231e-19)
(0.00078565 -4.00897e-06 -1.13484e-18)
(0.000804506 -8.83257e-07 -5.13509e-19)
(9.60499e-05 5.02844e-06 -1.73404e-19)
(0.000694779 0.00230226 0)
(0.000810787 7.29012e-06 0)
(0.000736078 1.92383e-05 -1.36113e-18)
(4.51043e-05 2.05121e-05 0)
(0.000279323 0.000277526 3.26837e-19)
(5.27438e-05 -2.14228e-05 0)
(5.20499e-05 -7.3673e-06 1.59487e-19)
(3.56589e-05 -5.86224e-05 -3.36651e-20)
(0.00075831 5.64998e-05 2.43836e-19)
(5.21224e-05 1.46966e-05 0)
(0.000776028 6.19042e-05 4.39477e-19)
(0.000742695 0.000301687 2.10756e-19)
(0.00095839 6.01424e-05 -3.98092e-20)
(5.02944e-05 2.89112e-05 -4.51903e-20)
(7.29009e-06 -4.62051e-05 0)
(0.0004166 0.000225931 1.7019e-19)
(1.84369e-06 3.67094e-05 0)
(0.000743227 4.13584e-06 -5.98128e-19)
(0.000546586 -0.000108486 0)
(7.66324e-05 3.24253e-06 -1.74492e-19)
(5.43794e-06 -6.13995e-05 0)
(0.000802908 0.000245843 -3.41339e-19)
(5.19035e-06 -2.88993e-05 0)
(0.000411273 0.000323774 -1.19839e-23)
(0.000504413 0.000118132 0)
(0.000791322 4.40758e-05 1.31043e-24)
(3.02191e-06 2.4895e-05 -4.2175e-20)
(0.000429 1.26723e-05 1.76388e-18)
(0.00101362 7.57305e-05 4.16211e-20)
(0.000983681 3.30286e-05 6.40703e-22)
(0.000718982 0.000647852 2.69207e-19)
(3.78844e-06 6.93389e-05 0)
(8.80704e-06 -0.000119865 -3.1227e-19)
(2.11672e-05 -0.000211949 -1.10097e-18)
(5.21308e-07 0.000106986 -5.95783e-19)
(0.000730824 -4.51415e-06 0)
(3.22355e-06 0.00013503 0)
(0.000785912 1.02571e-06 2.185e-18)
(0.000750654 3.05827e-05 1.49528e-18)
(0.000395441 -3.00894e-05 0)
(5.64706e-05 0.000234556 -8.94234e-19)
(-1.30979e-06 0.000214367 4.95807e-19)
(8.73584e-05 0.000480225 6.25223e-19)
(0.000289782 0.000119524 -9.34878e-19)
(0.000811686 8.1583e-06 1.34711e-19)
(0.000268075 -1.2065e-06 5.31193e-19)
(2.41764e-06 4.94022e-05 0)
(4.5867e-05 0.000322392 -1.08848e-18)
(0.00031098 0.000329919 -1.61697e-19)
(8.61805e-06 -8.89102e-05 1.46567e-19)
(0.000643306 0.000778491 0)
(0.000354999 0.000391379 5.74397e-20)
(0.000799494 -8.81678e-07 1.06683e-18)
(0.000752492 -2.953e-05 -2.68657e-18)
(8.91127e-06 -0.000158411 0)
(0.000759597 -1.37529e-05 -1.11325e-19)
(0.000317291 -5.17864e-05 1.24347e-18)
(0.00272391 0.000808323 -3.35297e-19)
(-3.64327e-06 0.000167172 -6.12582e-19)
(-1.49703e-05 0.000207769 1.61791e-18)
(0.000856453 1.83414e-05 -3.88795e-20)
(7.50827e-05 -5.87535e-06 -7.49762e-19)
(0.000776007 3.53885e-05 -3.88142e-19)
(0.00090772 2.85918e-05 -4.09882e-20)
(6.7359e-05 0.000384696 -5.96493e-19)
(0.000464222 8.51805e-05 -4.93973e-19)
(5.969e-05 -1.7982e-06 1.56169e-19)
(0.000817041 -1.39406e-05 -1.05718e-18)
(0.00165268 0.000209387 -1.13739e-18)
(-1.37226e-08 8.31607e-05 4.96002e-19)
(0.000789039 -1.72528e-06 -5.0124e-19)
(0.000874675 0.000538861 -7.85142e-20)
(0.000133012 0.000866738 0)
(0.000549598 6.91086e-05 0)
(0.000267355 6.51045e-05 -1.60803e-18)
(6.98274e-05 6.70649e-05 -1.3742e-18)
(3.65268e-05 2.52909e-05 0)
(0.00413105 0.00746752 -9.61485e-21)
(0.00411574 0.00749276 3.47515e-20)
(0.00431828 0.00769805 -9.79016e-21)
(0.00420366 0.00773196 0)
(0.00420084 0.00760005 5.74549e-19)
(0.00412997 0.00749635 -8.19147e-20)
(0.00421175 0.00804923 4.82882e-19)
(0.00428241 0.00744272 0)
(0.004211 0.00853591 6.14721e-19)
(0.00433469 0.00748257 1.82419e-19)
(0.000800054 -4.6946e-06 -1.35749e-18)
(0.000741556 5.74542e-05 0)
(0.000219704 7.44784e-05 1.27698e-19)
(5.84603e-05 2.1184e-05 8.71923e-20)
(8.58174e-05 5.37718e-05 6.80072e-19)
(0.000115298 5.15773e-05 -3.41691e-19)
(0.000110789 1.59718e-05 0)
(5.7209e-05 8.31056e-06 8.18378e-20)
(0.000204067 0.000148144 0)
(0.000173631 6.1482e-05 -5.24296e-20)
(0.000333021 0.000232609 -5.09248e-21)
(6.23244e-05 5.08159e-05 -4.37692e-19)
(9.98898e-05 3.70448e-05 -8.5254e-20)
(9.76853e-05 7.16855e-05 1.31203e-21)
(0.000245897 0.000371932 -6.66146e-19)
(0.000152406 0.00108505 0)
(4.79267e-05 5.96367e-05 3.43089e-19)
(0.000172864 0.00183888 0)
(0.000205716 0.000261528 7.04651e-19)
(4.64042e-05 -6.68112e-06 1.11324e-19)
(0.000462118 0.00017163 -1.72306e-19)
(0.000750429 2.79258e-05 -1.85142e-18)
(5.13033e-05 4.0882e-07 4.24831e-24)
(0.000158301 4.03363e-05 2.24589e-19)
(0.000238125 0.00011187 -8.99387e-20)
(0.000865804 0.000700101 3.34917e-19)
(0.000755132 0.0016253 -9.22033e-21)
(0.000408233 0.00136341 -9.43945e-21)
(0.00100531 0.000559898 0)
(0.000115748 -1.00299e-05 1.11886e-18)
(0.000128567 2.93432e-05 -4.43185e-20)
(0.000413243 -0.000234134 -1.13638e-18)
(0.000797575 3.56022e-05 0)
(0.000185132 3.36347e-05 3.62983e-19)
(0.000269824 0.0013708 0)
(0.00102592 0.000739756 -7.30162e-20)
(0.000812623 4.55362e-05 -1.82386e-19)
(9.34625e-05 -1.78049e-05 -2.99992e-19)
(0.000800519 0.00030637 -2.08078e-20)
(7.92476e-05 -2.26979e-05 -5.98803e-19)
(0.000226296 0.000185523 8.63881e-20)
(0.00022498 0.000313146 -3.45007e-19)
(0.000863525 0.000236388 0)
(0.000783922 4.15626e-05 0)
(0.000258477 0.00015446 1.76852e-19)
(0.000235237 2.34528e-05 1.59381e-24)
(0.000185001 0.000215224 0)
(0.000282028 0.000641154 -5.55316e-21)
(0.000327221 2.2258e-05 0)
(0.000332489 0.000592893 0)
(0.000116518 9.41371e-05 -1.34679e-21)
(0.000806152 -1.08206e-05 -9.37801e-19)
(0.000818395 -1.77448e-05 7.71645e-19)
(0.000135859 7.14217e-05 -1.49865e-19)
(0.000932884 0.000150524 8.50174e-20)
(0.000818117 4.9812e-05 3.27808e-19)
(0.000787669 1.73276e-05 -2.9327e-19)
(0.000982661 0.000403009 0)
(0.000423023 0.000128919 6.24502e-19)
(0.000873662 0.000315711 2.09169e-20)
(0.000548103 0.000167189 0)
(0.000274433 0.000437774 4.09614e-19)
(0.000256722 0.000228595 -8.44178e-20)
(0.0010877 0.000382483 -7.82273e-19)
(0.000589397 0.000118579 -1.79323e-19)
(0.000783025 8.88349e-05 -7.36342e-21)
(0.00081467 2.64766e-05 9.29043e-20)
(0.000111939 -9.33856e-05 -1.98149e-18)
(0.000720012 0.000376888 2.19245e-19)
(0.000633589 7.01435e-05 2.30549e-20)
(0.000683602 0.000272608 1.50651e-23)
(0.000705668 0.000444519 -4.09489e-19)
(0.00082698 3.86653e-05 8.85906e-20)
(7.79303e-05 9.13657e-05 0)
(0.000633241 0.00041956 -4.65691e-20)
(0.000185237 0.000112416 0)
(0.000364122 0.000508162 -2.64781e-19)
(0.000309252 0.000181492 0)
(0.000653214 0.000205069 3.5529e-19)
(0.000625755 0.000270303 -4.37308e-20)
(8.34724e-05 0.00011068 6.18974e-19)
(0.000869185 0.00011964 -1.61709e-18)
(6.618e-05 2.82791e-05 2.57214e-19)
(0.00087209 5.50441e-05 -1.64948e-18)
(0.000794592 5.48725e-05 1.60954e-19)
(0.000786954 5.79081e-06 1.92993e-18)
(0.000786365 2.0258e-06 -1.31401e-19)
(0.000691388 7.46643e-05 0)
(0.000827631 3.19257e-05 8.74548e-19)
(0.000922784 0.00023908 -4.27194e-19)
(0.000743708 7.4461e-05 -4.80314e-19)
(0.000757256 0.000229437 -8.80944e-20)
(0.000245101 -0.000102766 -2.07937e-18)
(0.00071127 9.41544e-05 8.87453e-19)
(0.000622568 0.000590731 0)
(0.000133052 -9.51477e-05 0)
(0.00117607 0.000465444 4.96763e-19)
(0.000800304 -0.000134246 -3.23004e-18)
(0.00127912 0.000416228 5.74425e-19)
(0.00126596 0.000713223 -6.38599e-20)
(0.000784786 5.58012e-05 -2.10675e-19)
(0.000810832 7.82856e-05 -1.40494e-18)
(0.000794907 3.86698e-05 1.57104e-18)
(0.000788408 2.29995e-06 9.67653e-20)
(0.000657914 0.000342472 -4.40446e-20)
(0.000108728 0.000143371 1.48537e-23)
(0.000705309 -6.65449e-05 2.65132e-19)
(0.000255063 -0.0001851 -7.36526e-19)
(0.000598595 0.000192509 0)
(0.000670465 2.12279e-05 9.90406e-20)
(0.000650043 8.07609e-06 -3.80897e-19)
(0.0003753 0.000182086 3.92991e-20)
(0.0007697 0.000497321 -1.6548e-19)
(0.000156572 9.0858e-05 2.31667e-25)
(0.000795232 0.000388988 0)
(0.00095203 0.000321692 4.15853e-20)
(0.000719675 -0.00010583 -6.16401e-19)
(0.000335753 0.00011545 4.97121e-19)
(0.000881643 0.000417453 0)
(5.67043e-05 3.77807e-05 1.33722e-19)
(0.000464102 0.000273539 2.13956e-19)
(0.000438244 -8.35199e-05 -7.09239e-19)
(0.000188279 -0.000129295 -1.05911e-18)
(0.000789854 -1.20392e-06 -4.72782e-19)
(0.000802287 -0.000112501 -1.92713e-19)
(0.000563556 0.000720428 -1.1703e-18)
(0.000824817 5.33284e-05 -6.62448e-20)
(0.000766075 -5.5372e-05 1.25823e-18)
(0.000658903 9.85884e-05 2.27832e-20)
(0.000507411 0.000220247 -1.65688e-19)
(4.37244e-05 -2.60337e-05 -8.75891e-20)
(0.000201032 -2.21215e-05 2.40373e-18)
(3.2995e-05 9.66506e-07 -1.94812e-19)
(0.000773665 7.95513e-05 3.60401e-19)
(0.000629104 0.000141889 0)
(0.000206802 -4.73578e-05 -1.04794e-18)
(0.000132832 4.19327e-06 3.12556e-19)
(0.000137187 -3.14024e-05 -2.20945e-24)
(0.000777864 0.000117825 -3.1846e-19)
(0.000160937 -3.25256e-06 0)
(0.000564695 0.00024441 0)
(0.000111477 0.000340625 -3.62843e-19)
(0.000838935 0.000114458 2.09574e-18)
(2.68779e-05 1.77526e-06 0)
(0.000831069 2.39558e-05 0)
(5.57652e-05 -2.68737e-05 0)
(0.000815421 2.34179e-05 -4.37515e-21)
(0.000812372 -6.73187e-05 0)
(0.00418403 0.00742863 7.88048e-20)
(0.00436402 0.00752919 1.35507e-19)
(0.000836564 8.78067e-06 0)
(0.000745945 -6.09825e-05 8.12967e-19)
(0.000154436 0.000138336 1.49212e-19)
(0.0008539 7.45184e-05 7.88247e-19)
(0.00013554 0.000115234 2.34409e-20)
(0.00074473 -5.68648e-05 6.27314e-19)
(4.17293e-05 1.29318e-05 0)
(3.85814e-05 -1.79605e-05 -4.48521e-20)
(0.000863315 5.99027e-05 -4.80151e-19)
(4.8704e-05 -3.67328e-05 -6.69673e-19)
(0.000733656 0.000124567 -4.22467e-20)
(0.000167747 0.000174673 -1.88102e-19)
(0.000803435 1.02862e-05 0)
(0.00465906 0.00824009 1.04278e-21)
(0.000162844 0.000777854 3.33709e-19)
(0.00013902 -4.61879e-05 -9.14144e-19)
(7.70099e-05 -3.54179e-05 -1.16878e-18)
(0.000790443 2.0217e-05 1.8954e-20)
(0.000563555 0.000415635 0)
(0.000394542 0.000430996 -2.5616e-19)
(0.000116336 -4.89349e-05 1.18364e-18)
(0.000749047 4.3174e-06 7.69966e-20)
(5.00523e-05 2.45741e-06 4.07083e-19)
(0.000636627 -5.7957e-05 1.17195e-18)
(0.000797456 2.05227e-05 -5.99605e-19)
(9.33369e-05 -5.43564e-05 1.70906e-18)
(0.000829684 5.37028e-06 -1.63231e-24)
(0.00076563 1.28245e-05 -3.76667e-20)
(0.000847362 5.94247e-05 0)
(0.000789821 4.02222e-05 0)
(0.00592877 0.00722737 2.5786e-19)
(3.44884e-05 2.39054e-06 -1.19554e-19)
(0.000184864 -7.26153e-05 7.72533e-19)
(0.000704607 0.000119147 -6.96633e-19)
(3.91345e-05 -9.93735e-07 2.01432e-19)
(0.000563416 -1.87527e-05 -7.23981e-19)
(0.000708025 1.01213e-05 1.53986e-18)
(0.000680692 0.000153656 -3.55495e-19)
(0.00079742 -3.23999e-05 3.54563e-19)
(0.000100377 -2.79145e-05 1.11614e-18)
(0.000754017 1.00211e-05 -3.19231e-19)
(0.000844297 5.65374e-05 0)
(0.000522945 0.000302962 4.21043e-20)
(0.000842165 3.59104e-05 -9.18058e-19)
(3.40045e-05 -1.79913e-06 9.10795e-19)
(0.000812769 2.78422e-05 9.40344e-19)
(0.000821058 -3.04754e-05 -9.63272e-19)
(0.000692169 1.59824e-05 -5.67338e-19)
(0.000479452 -4.5213e-05 -5.25761e-19)
(0.00434141 0.00749436 1.94321e-19)
(0.00420359 0.00754171 -2.76079e-19)
(0.00422065 0.00759567 2.76098e-19)
(0.00415831 0.00743329 2.40134e-19)
(0.000840077 -1.045e-06 1.4353e-19)
(0.00447238 0.00750041 0)
(0.00439226 0.00755239 -3.89256e-19)
(5.04349e-05 -4.40604e-07 -9.96406e-19)
(0.00410312 0.00741152 -6.24837e-20)
(0.00410891 0.00738909 -2.55573e-19)
(0.0060226 0.0105991 0)
(0.00659209 0.0111018 3.05511e-20)
(0.00600087 0.0105673 0)
(0.00660709 0.0110693 1.29148e-19)
(0.00598529 0.0105876 2.69034e-19)
(0.00660297 0.0110425 1.65896e-20)
(0.00593275 0.0106067 -7.74533e-19)
(0.00662723 0.0109115 1.19203e-20)
(0.00390557 0.00921403 -1.90774e-19)
(0.00411455 0.00745793 4.14645e-21)
(0.00422167 0.00756382 7.8749e-20)
(0.00411675 0.00740692 4.64783e-20)
(0.000846677 0.000176122 4.44641e-20)
(1.9706e-05 2.54553e-06 0)
(0.000643694 -0.000154355 0)
(0.00075455 3.05491e-05 0)
(0.00245419 0.00107282 4.25145e-21)
(0.000711243 -2.00015e-05 1.71108e-19)
(4.85794e-05 8.43683e-06 4.54111e-20)
(2.26147e-05 -3.35966e-05 1.65249e-18)
(0.000837016 2.71701e-05 0)
(3.36669e-05 1.65114e-05 -1.91744e-19)
(0.00014641 0.000232784 0)
(3.55149e-05 -1.31704e-06 0)
(2.94745e-05 -2.09282e-06 0)
(0.000794286 0.000129146 1.12935e-20)
(0.000821705 7.74968e-06 1.75933e-19)
(3.45001e-05 0.000325537 1.87903e-23)
(0.000162035 0.000278765 -1.84192e-18)
(0.000588945 0.000340934 -8.57035e-20)
(0.000881485 0.000125996 6.02781e-19)
(0.000717187 -0.000448608 6.64051e-19)
(0.000316971 0.00110857 0)
(0.000456871 0.000547078 2.71432e-18)
(9.91439e-05 0.000153894 -1.79894e-18)
(4.17587e-05 5.1454e-07 0)
(0.000834732 -1.76367e-05 3.60803e-20)
(2.16328e-05 4.4937e-05 1.64464e-18)
(0.000891914 2.59586e-05 2.71358e-19)
(7.96159e-05 -0.000233765 3.7804e-18)
(0.000920138 4.25338e-05 -2.69161e-19)
(0.00142997 0.000107605 7.46754e-19)
(4.68865e-05 -1.30272e-05 8.25799e-20)
(4.58006e-05 8.879e-06 -8.58396e-19)
(4.6793e-05 0.000160391 0)
(0.000881447 9.56714e-05 5.98741e-19)
(0.000480732 0.000371893 2.37136e-19)
(0.00081536 1.68171e-05 -3.87788e-20)
(0.000740757 -1.84236e-05 2.54704e-19)
(0.000691569 -0.000235845 0)
(0.0063251 0.0109005 -1.66311e-19)
(0.00639331 0.0109684 4.01993e-19)
(0.00616666 0.0107241 -6.14249e-19)
(0.0065773 0.0111119 -7.91169e-20)
(4.2976e-05 0.000123192 8.00128e-19)
(0.000881695 5.57995e-05 1.58655e-22)
(0.00643359 0.0110061 -3.82626e-19)
(0.00628327 0.0108575 5.42804e-19)
(0.00607942 0.0106651 -4.1706e-19)
(0.00659567 0.0111157 -6.02168e-20)
(9.70247e-05 0.000579707 -2.01983e-20)
(0.000179017 -0.000177363 -7.92424e-19)
(0.000798422 -3.17918e-06 -7.58797e-19)
(0.000705418 0.000218398 0)
(0.000761437 -1.56473e-06 0)
(0.000184743 0.000392915 3.36288e-19)
(0.000600865 0.000565775 -5.41465e-19)
(2.19447e-05 -3.0797e-06 1.78418e-19)
(0.000211024 0.000463231 -7.38366e-19)
(0.00100126 0.00097014 -1.12698e-19)
(0.000721523 0.000173241 0)
(0.000768248 0.000166272 1.30982e-19)
(0.00636989 0.00587667 1.12617e-18)
(0.00069487 0.00113907 8.27896e-20)
(4.5499e-05 4.49959e-05 -7.44775e-20)
(0.000815384 4.97687e-05 0)
(0.000868766 1.76503e-05 -3.57061e-20)
(4.46089e-05 6.51076e-06 -1.96634e-19)
(3.84358e-05 7.95496e-06 1.9295e-19)
(0.000813719 1.77193e-05 5.32846e-19)
(0.000954571 0.000106358 6.58513e-19)
(0.000712062 5.32372e-05 0)
(0.00023172 -0.000283072 -3.98556e-19)
(0.000882551 0.000139369 3.88623e-19)
(4.03551e-05 -8.56621e-05 2.03079e-19)
(0.00146085 0.000370329 -2.577e-18)
(0.000735127 4.30046e-07 0)
(0.000773734 0.000136052 3.7558e-19)
(9.04377e-05 0.000408929 0)
(0.00118384 0.00817369 4.6154e-19)
(0.000460593 0.00051035 -1.2234e-18)
(0.000533511 0.000964985 -1.83737e-19)
(0.00085956 2.64619e-05 -1.45125e-19)
(1.98505e-05 3.15649e-05 0)
(0.000907266 7.2662e-05 6.10661e-19)
(0.00409049 0.00741534 7.17754e-20)
(0.0041032 0.00743687 4.61872e-20)
(0.00449735 0.00749801 4.52389e-19)
(0.00442613 0.00757772 -3.39049e-19)
(0.00655745 0.0110989 7.92127e-20)
(0.00389788 0.00729914 2.77275e-21)
(0.00551216 0.00778951 -5.63048e-19)
(0.00409305 0.00749763 4.88613e-21)
(0.00519004 0.00784282 5.09683e-19)
(0.00407435 0.00743685 -4.29161e-20)
(0.00494939 0.00770345 0)
(0.00407252 0.00742917 -7.00312e-20)
(0.00473404 0.00757382 4.91012e-19)
(0.00408604 0.007425 7.57547e-20)
(0.00456178 0.00750845 0)
(0.00424817 0.00742373 1.47502e-19)
(0.00424953 0.00761392 6.0017e-19)
(0.0044632 0.00754744 -5.61356e-19)
(0.00438472 0.00754375 3.68745e-19)
(0.00417414 0.00752967 3.19692e-19)
(0.00647969 0.0110448 -5.63635e-21)
(0.00410368 0.00741265 3.00647e-20)
(0.0065214 0.0110746 0)
(3.13171e-05 9.63227e-06 -1.89881e-19)
(0.00197769 0.00652333 2.28085e-19)
(0.000842541 -4.51668e-06 1.09187e-19)
(0.000852262 1.98464e-05 0)
(4.10201e-06 4.3106e-06 -3.99158e-19)
(9.16085e-05 -0.000204707 6.91109e-19)
(2.39269e-05 6.68684e-05 2.08612e-18)
(0.000804171 0.000189993 -9.01037e-20)
(0.000749996 8.91859e-06 6.98174e-19)
(4.67612e-06 -4.98455e-06 3.10032e-19)
(2.82145e-05 -4.63726e-05 -1.84538e-18)
(0.000727098 1.91251e-05 1.61467e-19)
(0.000838195 0.00012424 -3.0268e-20)
(0.000746234 -5.3462e-06 1.46646e-19)
(0.000411357 0.000649064 0)
(0.000131864 -0.000152112 1.15177e-18)
(0.000836186 1.98151e-05 1.51257e-19)
(2.4409e-05 2.96181e-05 0)
(0.000102091 0.000563755 -6.31111e-19)
(0.000607983 0.000593844 1.31102e-18)
(0.000341658 0.000725186 0)
(0.000742416 -1.18724e-05 0)
(0.000753563 4.67951e-05 1.15815e-18)
(2.55856e-05 5.39313e-05 -3.51333e-18)
(2.25628e-05 1.127e-05 3.73664e-19)
(0.000112511 0.000157275 0)
(6.56968e-05 -4.54367e-05 0)
(7.30844e-05 0.000123919 2.00894e-19)
(0.000899684 0.000173889 3.49619e-19)
(0.000792072 -2.13713e-05 -1.36796e-18)
(2.77012e-05 4.06839e-05 0)
(0.000602379 7.66617e-05 -6.00855e-20)
(0.000760259 2.60038e-05 -1.54725e-19)
(0.000832322 1.06358e-05 1.02883e-18)
(0.000252357 0.000546501 6.3214e-19)
(0.000827112 0.000141463 0)
(3.3913e-05 -3.35104e-05 5.38737e-19)
(4.71142e-06 -1.61434e-05 -3.19967e-19)
(0.00112556 2.86023e-06 0)
(0.00095502 0.00218917 0)
(0.00105174 -8.28306e-05 0)
(0.000973922 0.000191368 4.2731e-19)
(0.000831016 -1.29249e-05 -2.81552e-19)
(0.000890927 0.00012487 -6.84159e-19)
(0.000756405 1.07342e-05 0)
(4.5066e-05 7.9425e-05 -1.71586e-19)
(0.000172746 0.000331387 1.08114e-18)
(0.000776105 4.17755e-05 1.94926e-23)
(0.00106322 0.000181691 -6.69062e-19)
(0.00107459 0.000117086 0)
(3.85213e-06 1.39507e-05 2.51059e-19)
(2.73891e-05 -2.21532e-05 -1.94336e-19)
(0.000696866 3.36093e-05 6.88027e-21)
(5.29255e-05 -0.000115412 0)
(0.00102125 0.000253452 9.50656e-19)
(0.00502183 0.00974321 -2.82535e-19)
(0.00311251 0.00962875 1.26996e-18)
(9.29182e-05 -0.00012297 -1.91378e-19)
(8.95074e-05 -8.48966e-05 1.85986e-18)
(0.0011865 0.000221044 1.67129e-19)
(0.00129385 0.00105172 2.34053e-19)
(0.000825912 1.21656e-05 -7.26628e-19)
(0.000216994 0.000930295 -2.38875e-19)
(0.000775818 0.000876232 -2.18565e-19)
(0.000762607 -1.54985e-05 0)
(0.000106324 0.000709321 0)
(9.92136e-05 0.000287767 -5.00743e-23)
(0.000775128 -1.73277e-05 -2.27445e-23)
(0.000811049 7.34992e-06 1.51089e-19)
(0.00261887 0.00201469 -1.22878e-18)
(0.00175559 0.00924882 -1.16941e-19)
(0.000805759 2.98389e-05 4.84298e-19)
(0.00636013 0.00403757 -1.74737e-19)
(0.00673572 0.0112727 -1.54802e-20)
(0.00469648 0.0079746 5.7623e-21)
(0.000795211 5.66778e-05 -2.14556e-18)
(0.000815302 3.91858e-05 -1.17325e-23)
(1.68618e-05 -1.30699e-05 -3.48011e-19)
(4.96978e-05 0.000101476 -3.49317e-19)
(8.54583e-05 0.000285236 8.76019e-19)
(1.68619e-05 2.15112e-05 4.90463e-19)
(9.20085e-05 0.000242636 3.69779e-19)
(0.000816865 4.24657e-05 0)
(0.00532558 0.00939463 1.60389e-20)
(0.0014783 0.000623308 -2.61746e-20)
(0.000822453 2.04032e-05 3.55613e-19)
(6.97453e-05 -9.77764e-05 0)
(0.00186758 0.000723355 5.44805e-19)
(1.48102e-05 1.19501e-05 -2.70189e-19)
(4.04598e-05 3.53578e-05 9.71944e-20)
(0.0013186 0.00138972 6.37007e-19)
(0.000774786 2.93061e-05 1.80921e-19)
(1.39437e-05 -3.73435e-06 -1.70229e-19)
(0.00202626 0.00154173 -1.05473e-18)
(0.000129363 0.000190403 -8.1846e-19)
(0.00392319 0.00847292 -1.08852e-18)
(1.24198e-05 3.26798e-06 8.81536e-20)
(0.000217401 -0.000373975 -1.23953e-18)
(6.96716e-05 -6.14001e-05 4.05708e-20)
(0.00147301 0.000949726 0)
(0.00100868 0.000143799 -4.32878e-22)
(0.000432518 0.00085632 -4.02155e-20)
(0.000811647 1.9357e-05 -2.31366e-19)
(8.63478e-05 0.000197994 7.349e-19)
(5.74767e-05 -7.4274e-05 4.04096e-19)
(2.32339e-05 1.99356e-05 -9.47222e-20)
(4.06924e-05 0.00010709 -3.2027e-19)
(0.000192352 -0.000362935 -5.3698e-19)
(0.00323538 0.00342018 2.72191e-21)
)
;

boundaryField
{
    back
    {
        type            empty;
    }
    ingreso
    {
        type            fixedValue;
        value           uniform (0.0008 0 0);
    }
    salida
    {
        type            zeroGradient;
    }
    front
    {
        type            empty;
    }
    defaultFaces
    {
        type            noSlip;
    }
}


// ************************************************************************* //
