/*--------------------------------*- C++ -*----------------------------------*\
  =========                 |
  \\      /  F ield         | OpenFOAM: The Open Source CFD Toolbox
   \\    /   O peration     | Website:  https://openfoam.org
    \\  /    A nd           | Version:  7
     \\/     M anipulation  |
\*---------------------------------------------------------------------------*/
FoamFile
{
    version     2.0;
    format      ascii;
    class       volScalarField;
    location    "68.5";
    object      p;
}
// * * * * * * * * * * * * * * * * * * * * * * * * * * * * * * * * * * * * * //

dimensions      [0 2 -2 0 0 0 0];

internalField   nonuniform List<scalar> 
591
(
0.000123885
0.000123902
0.000123907
0.00012386
0.000123862
0.000123932
0.000123927
0.000123895
0.000116984
0.000123912
0.000124091
0.000122827
0.000123901
0.00011973
0.000123895
0.000123943
0.000123874
0.000123939
0.00012195
0.000123274
0.000123876
-3.52633e-06
0.000124088
0.000123878
0.000124046
0.000123899
0.000123999
0.000124007
0.000123912
0.00012392
0.000124066
0.000124041
0.00012406
0.000124059
0.000124061
0.000123386
0.000124057
0.000123879
0.000124083
0.000124002
0.000123966
0.000124053
0.000123907
0.000123928
0.00012405
0.00012407
0.000119243
0.000124074
0.000123912
0.00012403
0.000124018
0.000124051
2.39382e-05
3.05814e-05
4.78357e-05
0.000123906
0.000124078
0.000124066
0.000124072
0.000123885
0.000123972
0.000123902
0.000123901
0.00012395
0.000122568
0.000123903
0.000123906
0.000124069
0.000120721
0.000123916
0.000123911
0.000124075
0.000124044
0.000124055
0.00012406
0.000124037
0.00012388
0.000124072
0.000123882
0.000123816
0.00012366
0.000124077
0.000124037
0.000124016
0.000124084
0.000123893
0.000123983
0.000124067
0.000124029
0.000123782
0.000124042
0.000123987
0.000124004
0.000123885
0.000124083
0.000124037
0.00012359
0.000123489
0.000123646
0.000124088
0.000123997
0.000123913
0.000124092
0.000123858
0.000124093
0.000123904
0.000123901
0.000124042
0.000124084
0.000124087
0.000123975
0.000124063
0.000123918
0.000124068
0.000124086
0.000124066
0.00012402
0.000124016
0.000123578
0.000123987
0.000123904
0.000123898
0.00012398
0.000123885
0.000124056
0.000120198
0.000124092
0.000124068
0.000123657
0.000124061
0.000123895
0.000123582
0.000124027
0.000124023
0.000124065
0.000123909
0.000122622
0.000124091
0.000123897
0.000123577
0.000123641
0.000123991
0.000124073
0.000124084
0.000124078
7.61522e-06
3.67767e-06
2.07051e-06
3.81519e-05
3.66923e-05
5.65994e-06
3.83022e-05
1.57379e-05
3.72824e-05
1.78041e-05
0.000123903
0.000123894
0.00012408
0.000124074
0.000124081
0.00012408
0.000124072
0.000124069
0.000124079
0.000124078
0.000124042
0.000124081
0.000124077
0.000124083
0.00012402
0.000123392
0.000124084
0.000122119
0.000124063
0.000124064
0.000124011
0.000123913
0.000124064
0.000124078
0.000124076
0.00012349
0.00012247
0.000123047
0.000123444
0.000124068
0.000124075
0.000123989
0.000123875
0.000124069
0.000122964
0.000123301
0.000123876
0.000124062
0.000123758
0.000124056
0.000124072
0.000124046
0.000123728
0.000123866
0.000124069
0.000124076
0.000124074
0.000123871
0.000124057
0.000123867
0.000124085
0.000123898
0.000123896
0.000124082
0.00012369
0.000123867
0.000123907
0.000123543
0.000124033
0.000123689
0.000123976
0.000123987
0.000124061
0.000123457
0.000123966
0.000123859
0.000123861
0.000124038
0.000123797
0.000123952
0.000123865
0.000123776
0.000123854
0.000124086
0.000123841
0.000124082
0.00012393
0.000124059
0.000123908
0.000123908
0.000124088
0.000123802
0.000124076
0.000123792
0.000123839
0.000123902
0.000123882
0.000123918
0.000123904
0.000123674
0.000123878
0.000123829
0.000124046
0.000123897
0.000123746
0.000124033
0.000123299
0.000123854
0.000123193
0.000123074
0.000123889
0.000123854
0.000123891
0.000123888
0.000123855
0.000124087
0.000123933
0.000124018
0.000123943
0.000123938
0.000123951
0.000124039
0.00012369
0.000124082
0.000123726
0.000123617
0.000123921
0.000124058
0.000123638
0.000124079
0.000123986
0.000124012
0.000124036
0.000123913
0.000123882
0.000123712
0.000123849
0.000123876
0.000123928
0.000123982
0.00012405
0.000124066
0.000124072
0.000123832
0.000123937
0.00012406
0.000124067
0.000124062
0.000123856
0.000124074
0.000123948
0.000124055
0.000123819
0.000124075
0.000123808
0.000124052
0.000123942
0.000123883
1.16394e-05
2.19077e-05
0.000123836
0.000123909
0.000124085
0.000123838
0.000124085
0.000123919
0.000124074
0.000124052
0.000123791
0.000124047
0.000123877
0.000124081
0.000123911
-2.09777e-07
0.000123771
0.000124057
0.000124052
0.000123752
0.000123897
0.000123938
0.000124047
0.00012381
0.000124068
0.000123954
0.000123903
0.000124045
0.000123856
0.000123784
0.000123816
0.000123913
4.7465e-05
0.000124063
0.000124046
0.000123902
0.000124069
0.000123982
0.000123925
0.000123906
0.000123895
0.000124056
0.000123921
0.000123829
0.000123949
0.000123832
0.000124068
0.00012384
0.000123895
0.000123931
0.000124016
1.98688e-05
2.73271e-05
3.42874e-05
9.6368e-06
0.00012388
3.30466e-05
2.59956e-05
0.000124066
1.90699e-05
1.70261e-05
3.81777e-05
7.5737e-06
3.99295e-05
5.60257e-06
4.08239e-05
3.68699e-06
4.28069e-05
1.87453e-06
3.63943e-05
2.31927e-05
2.94432e-05
1.49889e-05
0.000123759
0.000124076
0.000123947
0.000123953
0.000120894
0.000123999
0.000124071
0.000124042
0.000123847
0.000124077
0.000124077
0.000124058
0.000124055
0.00012382
0.000123896
0.00012406
0.000124066
0.000123904
0.000123777
0.000123841
0.000123408
0.000123859
0.00012409
0.000124061
0.000123907
0.000124084
0.000123752
0.00012393
0.000123711
0.000122862
0.000124056
0.000124067
0.000124089
0.000123764
0.000123946
0.00012371
0.000123919
0.000123909
2.60371e-05
2.18725e-05
3.30283e-05
1.16155e-05
0.000124093
0.000123758
1.98153e-05
2.82483e-05
3.55946e-05
9.58545e-06
0.000123907
0.000124008
0.00012386
0.000123871
0.000123897
0.000124026
0.000123818
0.000124052
0.000123991
0.000123101
0.000123874
0.000123841
5.93466e-05
0.000123225
0.000124082
0.000123889
0.000123786
0.00012407
0.000124073
0.000123871
0.000123671
0.000123899
0.000123964
0.000123753
0.000124027
0.000122912
0.000123835
0.00012385
0.000124034
0.000100875
0.000123883
0.000123486
0.000123819
0.000124082
0.00012372
1.08931e-05
2.11099e-05
3.53593e-05
2.81843e-05
1.36589e-05
5.35654e-08
4.20709e-05
2.68829e-06
4.01499e-05
4.76002e-06
3.94085e-05
6.81247e-06
3.86157e-05
8.85485e-06
3.72817e-05
1.36709e-05
3.17202e-05
3.05766e-05
2.39322e-05
2.52712e-05
1.77612e-05
1.29352e-05
1.57041e-05
0.000124076
0.00010241
0.000123879
0.000123812
0.000124079
0.000123971
0.000124085
0.000123803
0.000123933
0.000124047
0.000124043
0.00012405
0.000123805
0.000123902
0.000123802
0.00012401
0.000123841
0.00012408
0.000123947
0.000123779
0.000123783
0.000123913
0.000123905
0.000124087
0.000124078
0.000124086
0.000124047
0.00012409
0.000123719
0.0001239
0.000124082
0.000123846
0.000123974
0.000123904
0.000123943
0.000123786
0.000124046
0.000124045
0.00012336
0.000121372
0.000123089
0.000123633
0.000123901
0.000123731
0.000123912
0.000124086
0.000124049
0.000123906
0.000123521
0.0001235
0.000124081
0.000124049
0.00012392
0.000124015
0.000123559
5.83114e-05
4.01093e-05
0.00012402
0.000124037
0.0001234
0.000122746
0.000123886
0.000123628
0.000123374
0.000123897
0.0001238
0.00012407
0.00012393
0.000123958
0.000119003
5.4469e-05
0.000123927
8.12276e-05
1.86104e-06
-3.81706e-07
0.000123896
0.000123866
0.000124048
0.000124088
0.000124077
0.000124081
0.00012408
0.000123882
-2.30782e-06
0.000122829
0.00012392
0.000124027
0.00012201
0.000124079
0.00012408
0.000122287
0.000123996
0.00012405
0.000121694
0.000124083
7.63411e-05
0.000124078
0.000123713
0.000124041
0.000122375
0.000123608
0.000123666
0.00012393
0.000124086
0.000124034
0.000124079
0.00012409
0.000123901
0.000116176
)
;

boundaryField
{
    back
    {
        type            empty;
    }
    ingreso
    {
        type            zeroGradient;
    }
    salida
    {
        type            fixedValue;
        value           uniform 0;
    }
    front
    {
        type            empty;
    }
    defaultFaces
    {
        type            zeroGradient;
    }
}


// ************************************************************************* //
