/*--------------------------------*- C++ -*----------------------------------*\
  =========                 |
  \\      /  F ield         | OpenFOAM: The Open Source CFD Toolbox
   \\    /   O peration     | Website:  https://openfoam.org
    \\  /    A nd           | Version:  7
     \\/     M anipulation  |
\*---------------------------------------------------------------------------*/
FoamFile
{
    version     2.0;
    format      ascii;
    class       surfaceScalarField;
    location    "68.5";
    object      phi;
}
// * * * * * * * * * * * * * * * * * * * * * * * * * * * * * * * * * * * * * //

dimensions      [0 3 -1 0 0 0 0];

internalField   nonuniform List<scalar> 
1111
(
6.62843e-09
1.31488e-08
-1.59339e-08
-3.84333e-09
6.65964e-09
-1.18272e-08
1.1796e-08
-1.47446e-08
5.33893e-09
9.13969e-09
2.65946e-10
6.11821e-10
-7.03763e-10
-1.42798e-08
1.43717e-08
-1.42098e-08
1.39504e-08
8.7123e-10
-1.65355e-09
1.4901e-08
2.1811e-09
-3.53135e-09
9.70479e-09
-1.03025e-08
4.12906e-09
-6.70609e-09
-1.26186e-08
1.25938e-08
6.73089e-09
-5.04452e-08
-2.59427e-08
7.63878e-08
-8.13353e-09
7.63628e-09
7.15689e-09
3.47739e-09
3.496e-10
-3.55851e-09
-2.68481e-10
1.57103e-08
-1.60513e-08
-2.30857e-08
2.34267e-08
-9.64818e-09
-7.89892e-09
8.7894e-09
8.7577e-09
-3.54231e-08
1.76327e-08
-3.23074e-08
5.00977e-08
9.51975e-09
-1.95892e-09
-1.42669e-08
-1.26981e-09
2.08226e-09
-3.52288e-09
2.71043e-09
-3.81757e-09
1.33331e-08
1.95078e-09
-1.14663e-08
8.83187e-09
-2.50992e-09
-1.50378e-08
8.71588e-09
3.76086e-08
-3.03792e-08
-7.22948e-09
-1.94289e-08
3.34182e-10
1.73058e-08
1.78901e-09
-9.06905e-10
4.15186e-09
-1.78765e-08
1.46315e-08
-6.12212e-08
-3.96285e-09
6.5184e-08
1.49963e-10
-1.25053e-09
-3.51499e-10
1.45206e-09
-1.5316e-09
-1.35851e-08
-1.42209e-10
-2.92436e-10
2.45446e-10
1.892e-10
-1.02206e-08
-8.30097e-09
1.27435e-08
5.77799e-09
7.01891e-10
-2.13253e-09
-8.39527e-09
9.82591e-09
8.23184e-09
8.80196e-10
-9.20136e-09
8.93284e-11
-2.8624e-09
-7.88183e-09
1.09573e-08
-2.13122e-10
1.13908e-08
-7.63755e-10
-1.79515e-09
-9.31044e-10
9.18304e-10
4.5065e-11
-3.23254e-11
-2.08946e-10
8.0522e-10
3.56695e-10
-9.5297e-10
-5.37045e-10
-3.94528e-11
5.72402e-10
4.09511e-12
-5.26731e-12
-9.27656e-10
1.05174e-10
8.27749e-10
-7.4058e-11
-8.62253e-10
8.55996e-10
-1.84575e-08
-1.8274e-09
-4.5053e-10
4.8876e-11
-1.35391e-10
1.34057e-08
-1.32494e-08
3.99565e-09
-3.97217e-10
6.03828e-10
3.71365e-10
-5.77977e-10
-2.38056e-10
-1.99663e-09
1.56738e-09
6.67303e-10
-2.11844e-09
1.01552e-08
-1.15681e-08
-3.31449e-10
-1.79227e-10
6.01466e-11
-8.79289e-09
1.02513e-08
-9.59194e-09
1.21232e-08
-1.71216e-08
4.80705e-09
1.91354e-10
7.33175e-11
-1.8389e-10
-2.20876e-10
2.2067e-10
8.42796e-10
-1.45161e-10
-5.95264e-08
7.42437e-08
-1.47173e-08
1.09263e-09
-3.05522e-10
-1.2432e-09
4.56092e-10
1.13722e-09
1.032e-08
-1.37271e-08
2.26992e-09
-1.35198e-09
7.35648e-09
-8.78169e-09
2.77719e-09
-6.58722e-09
5.719e-09
5.56977e-09
-4.70154e-09
-7.35995e-09
-1.98738e-09
1.94499e-09
7.40234e-09
-1.84161e-10
-9.09246e-08
9.13105e-08
-2.01759e-10
-2.58553e-10
-8.97628e-08
9.01719e-08
-1.50531e-10
8.30892e-08
-1.49533e-09
1.11547e-10
-8.17054e-08
-3.05488e-09
-2.98913e-10
7.34229e-10
8.77976e-10
-5.19577e-10
3.9783e-09
-1.4227e-09
3.35634e-09
-5.91195e-09
-1.03424e-09
9.49388e-10
-1.4969e-08
6.61227e-09
9.51345e-09
1.00787e-09
-1.02487e-08
-2.72638e-10
-6.20935e-09
1.31776e-08
1.25159e-09
-8.21981e-09
1.4345e-08
-4.33929e-09
3.53214e-09
-1.35379e-08
1.54187e-08
1.70927e-09
-1.69916e-09
-2.61871e-10
-2.00393e-08
-7.36138e-09
2.76626e-08
1.40547e-08
-8.50257e-09
-2.04634e-09
7.81381e-09
-1.19768e-08
-5.55912e-11
1.51648e-10
-1.33926e-09
-3.6317e-08
-2.32094e-08
8.17455e-09
1.70727e-10
3.77788e-09
-7.0244e-09
1.09009e-08
6.37485e-09
-6.41416e-10
3.54437e-10
5.16971e-10
-2.29992e-10
5.84877e-09
-4.70514e-09
3.60684e-09
-4.75047e-09
-5.37906e-10
-6.71407e-10
2.81658e-10
7.29578e-10
-6.63856e-10
-6.94155e-11
-9.79728e-10
8.40198e-10
-1.78882e-08
2.46899e-09
1.51024e-09
1.3909e-08
2.57278e-10
-7.52222e-10
-1.46472e-10
-4.00864e-09
-1.49698e-08
1.09026e-09
5.63882e-09
1.19435e-08
-5.22685e-09
-1.23555e-08
1.64586e-08
6.27368e-10
-1.59269e-08
-1.15904e-09
-7.24683e-10
4.98664e-10
5.80455e-10
-5.87889e-10
3.05546e-10
2.82343e-10
-7.27351e-09
-3.6699e-09
4.35618e-09
-2.84249e-10
4.25014e-10
-1.40765e-10
1.27068e-09
-1.54999e-08
-8.47108e-10
9.42424e-09
-1.06956e-08
-1.04477e-09
-6.57303e-10
1.27733e-08
4.38919e-09
-4.13293e-09
-1.30296e-08
1.63338e-10
7.05918e-09
-7.79602e-09
6.45584e-09
-1.7882e-09
-8.73731e-09
8.00971e-09
2.5158e-09
-1.81813e-09
6.37414e-10
-1.37891e-08
-1.64877e-10
-1.19372e-10
-8.41622e-11
9.53485e-10
-8.22927e-09
7.36454e-10
1.73184e-08
-1.59631e-09
-1.28648e-08
1.41737e-08
-1.30892e-09
1.2123e-08
1.40317e-08
-1.5557e-08
-1.05977e-08
-6.44536e-10
1.14271e-09
-4.98171e-10
7.38972e-10
-8.3953e-10
1.00558e-10
1.07759e-09
-1.2598e-09
1.82213e-10
1.57357e-09
-1.29267e-09
-2.80905e-10
-1.08974e-08
6.3544e-10
1.0262e-08
2.24787e-09
-6.74297e-10
8.93029e-09
-1.53159e-08
7.10294e-09
-8.53908e-09
5.54245e-11
3.8192e-09
-3.97232e-10
-2.59747e-09
2.6529e-09
-6.84954e-09
8.17597e-09
-1.32643e-09
-6.97553e-10
4.18341e-09
4.92452e-10
1.72682e-08
-1.44991e-08
-1.63192e-09
-5.77178e-09
5.29255e-09
-9.43462e-10
-2.19522e-10
6.14765e-09
-6.16776e-09
2.01044e-11
6.97838e-09
4.44016e-09
8.1669e-11
-1.60186e-08
1.04666e-08
1.76749e-08
5.72136e-09
8.3162e-09
8.24153e-09
-6.83796e-09
1.16502e-09
-1.20624e-08
7.96385e-10
7.88309e-10
-1.28365e-08
3.08548e-09
-4.32585e-10
1.21284e-08
-1.1501e-08
-1.96313e-10
-9.2251e-10
-1.37859e-08
7.39712e-09
8.20607e-10
-2.51837e-11
-8.91473e-09
5.11246e-09
-3.0641e-08
-1.25033e-08
-2.68363e-09
1.40108e-09
1.39924e-08
1.09538e-08
-1.06861e-08
-1.42602e-08
1.55921e-08
-3.11154e-09
-1.24806e-08
1.65634e-09
3.91727e-09
-1.25848e-09
-9.36957e-10
-9.39773e-10
1.25006e-09
6.26671e-10
-2.63768e-10
3.87896e-10
3.92843e-10
6.21363e-08
-6.21608e-08
2.45954e-11
6.2058e-08
-6.23615e-08
3.03489e-10
8.36799e-10
6.47471e-08
-6.55742e-08
8.27116e-10
6.41388e-08
6.08325e-10
-2.25244e-10
-6.65201e-08
9.4584e-10
-6.20438e-08
6.19104e-08
1.33358e-10
1.31638e-09
-6.78364e-08
-6.22023e-08
1.58544e-10
1.23501e-08
-9.09725e-10
1.51784e-09
-3.7072e-09
3.09909e-09
3.75392e-10
-1.23703e-09
1.0343e-09
-6.96268e-10
1.43894e-09
-1.69501e-09
9.52342e-10
1.47721e-09
-1.61521e-09
2.89653e-10
-7.67757e-11
-3.37955e-09
2.92325e-09
-2.16458e-09
2.62088e-09
-6.53838e-10
-2.80952e-09
2.55363e-09
-3.70972e-09
-5.69696e-09
6.18851e-10
-6.80648e-10
1.32536e-09
1.14788e-09
-6.55515e-09
7.98773e-09
3.00758e-09
1.99734e-08
-4.38123e-09
-7.6488e-10
2.95816e-10
1.08791e-09
-1.00485e-08
-2.62685e-08
5.40519e-09
-4.38484e-09
-3.13626e-09
2.11591e-09
1.21073e-10
1.96626e-11
4.31667e-10
-2.68873e-09
3.42492e-09
8.79702e-09
8.25467e-10
-4.0138e-10
2.16384e-09
-2.4163e-09
2.05556e-09
1.47717e-08
1.32525e-08
-2.6981e-08
3.26429e-08
6.29519e-09
-2.28376e-08
-1.04386e-08
1.83267e-08
-1.7852e-08
1.04791e-08
-1.7193e-10
-1.1305e-10
-1.33023e-09
-1.80674e-09
-2.90043e-09
3.82353e-09
1.49167e-08
-5.96056e-10
-1.36833e-08
-3.26871e-10
-2.58985e-09
1.072e-10
1.54616e-08
1.76367e-08
1.36826e-08
6.94043e-10
-1.60262e-09
-1.27741e-08
-1.7075e-09
6.01303e-09
1.23991e-08
-6.33912e-10
-1.15085e-09
-3.56339e-09
2.74706e-09
3.73958e-09
2.45688e-09
1.43127e-08
4.17168e-09
-1.40952e-08
1.778e-08
-1.77297e-09
2.67557e-09
-3.52011e-09
1.88233e-09
-4.75556e-09
1.29397e-08
-1.20017e-08
-1.39897e-08
4.47639e-10
8.78653e-09
-1.85962e-09
1.55746e-09
1.62751e-09
-8.66847e-09
6.76458e-10
-4.51131e-09
-6.0478e-09
1.22212e-08
-1.48419e-08
1.25657e-09
1.66678e-09
-2.21732e-09
1.6635e-08
-1.60845e-08
-1.00633e-09
1.40929e-08
2.95462e-09
-4.27941e-09
-1.39911e-08
7.42549e-09
-1.72031e-08
-8.07435e-09
6.65338e-09
5.86396e-09
1.44617e-08
-9.79253e-09
3.09061e-09
9.21773e-09
9.87782e-09
3.83127e-09
-4.14715e-09
2.15808e-08
-1.89917e-08
4.83638e-09
-1.03297e-08
2.19353e-09
5.56554e-09
1.37247e-08
-1.63403e-10
1.27007e-08
-1.35436e-08
-1.82498e-09
2.14237e-09
-1.19101e-09
8.73629e-10
1.09203e-08
-6.3872e-09
7.41039e-09
-1.07307e-08
1.40882e-09
-4.75061e-09
1.13683e-08
-1.18445e-08
-7.52749e-09
9.10078e-09
9.34704e-09
1.27943e-08
8.04513e-10
-1.37622e-08
1.58481e-09
8.13127e-10
-1.101e-08
-6.71578e-09
1.01983e-08
-1.58612e-09
2.52063e-09
-8.92572e-09
4.8138e-09
-5.18131e-09
1.14338e-08
-3.49237e-09
-1.16272e-08
3.68576e-09
-4.49999e-09
1.11832e-08
1.98423e-09
1.15804e-09
-5.04113e-09
-1.76186e-08
1.04005e-08
1.22592e-08
8.05202e-10
-1.08903e-08
-9.88011e-09
1.57293e-08
1.24342e-08
2.81608e-09
-9.68479e-09
-1.32669e-08
-2.87572e-10
-1.27017e-08
1.89692e-10
-7.37826e-10
1.15055e-08
1.24796e-08
-8.20737e-09
1.64635e-08
-1.58499e-08
3.55805e-09
-4.48382e-10
1.72337e-09
1.2634e-08
-3.88819e-09
-1.26002e-08
-5.12211e-09
1.31959e-09
4.59083e-09
1.20914e-08
-7.29708e-09
8.40876e-10
-1.46018e-09
1.12912e-09
-1.49392e-09
5.91139e-09
2.61486e-08
-2.76607e-10
-1.08145e-08
1.10911e-08
2.84426e-08
-2.2197e-08
2.19863e-08
1.96239e-08
-1.26756e-08
-2.65079e-09
1.49707e-08
2.22044e-10
-1.21334e-08
-3.46263e-10
-6.02891e-09
-1.91022e-09
2.29445e-09
1.6e-09
-2.10217e-10
-1.09598e-08
1.12753e-08
-1.05261e-10
3.06433e-09
-5.40926e-09
-1.08489e-08
1.04471e-08
-8.50089e-10
-1.06184e-08
-1.11291e-10
-1.09875e-08
-2.71348e-09
-1.19367e-08
2.22408e-09
7.87281e-09
5.12435e-09
-1.28653e-10
-1.171e-08
1.16285e-08
6.23218e-10
-8.66186e-09
5.22202e-09
-1.2843e-09
2.48568e-09
-2.62627e-09
-1.30234e-08
-1.29181e-08
1.25129e-08
-1.02378e-08
-1.57866e-08
1.00057e-08
9.18416e-09
8.65745e-10
2.60245e-09
-1.34169e-08
1.1221e-08
1.69332e-09
3.98079e-09
3.34475e-10
-5.61886e-10
-3.10495e-10
-4.08252e-09
2.62344e-09
-1.13076e-09
2.52335e-10
-2.95715e-10
4.33802e-11
-2.61443e-09
1.28717e-08
2.17701e-09
2.56561e-09
-4.35155e-10
-1.60545e-09
-3.14337e-10
-2.45071e-09
-4.84976e-10
1.28336e-08
9.92794e-09
-3.97168e-10
6.95041e-09
-1.21505e-09
-5.33819e-09
-9.71696e-09
-5.08556e-09
1.94887e-10
5.74474e-11
4.84083e-09
1.31613e-09
-1.70473e-08
-4.62162e-10
-8.43157e-10
-2.69259e-09
9.89714e-10
2.83315e-09
6.19352e-08
-8.74017e-11
-6.18478e-08
6.2352e-08
1.87441e-10
-6.25395e-08
-1.41761e-08
-6.81018e-11
1.45422e-08
-2.98015e-10
2.91907e-09
-1.94138e-09
2.66533e-09
1.79668e-09
-4.43101e-09
-4.04484e-10
-5.80272e-10
4.70532e-10
-1.20252e-10
5.17588e-10
-3.62339e-10
1.94485e-08
1.10554e-09
-1.57132e-08
-2.18827e-10
-1.94542e-09
1.23318e-08
2.24768e-09
1.76609e-09
5.29863e-09
-2.02151e-09
-7.72331e-08
-2.41776e-08
-4.80548e-09
1.57847e-08
2.35385e-09
-4.01835e-10
-3.17964e-09
-1.2297e-09
5.10666e-10
-4.31816e-10
-1.08648e-08
-3.29776e-10
1.11945e-08
-1.07499e-08
-6.63075e-09
1.06649e-08
-9.37942e-09
8.76989e-09
5.87236e-11
1.68181e-09
1.03541e-08
-1.01939e-08
-1.60172e-10
6.68775e-10
7.99163e-11
1.03211e-08
8.42913e-10
-9.58183e-10
-2.12794e-10
-1.42445e-08
-5.10704e-10
-1.36495e-08
1.24508e-08
-1.17278e-08
-6.60085e-08
6.49627e-08
1.0458e-09
3.37763e-10
-3.181e-10
1.18393e-08
-3.08921e-10
1.32057e-11
-2.0345e-09
2.77773e-09
-3.43109e-09
-1.34968e-08
-1.64229e-09
2.57198e-09
-4.76361e-09
-1.39573e-08
1.67364e-09
5.59563e-09
9.55433e-09
-8.89639e-09
-3.36601e-10
2.76802e-11
-9.34343e-09
-1.31273e-08
1.4974e-10
-6.27058e-08
2.36709e-10
6.24691e-08
6.9608e-10
6.34427e-08
-2.2563e-10
-1.36659e-09
-1.44448e-08
1.0647e-10
-6.33792e-08
6.32727e-08
1.83809e-10
-6.2925e-08
6.27412e-08
4.32829e-10
6.18062e-08
1.51666e-10
-6.19579e-08
6.16362e-08
1.70009e-10
-8.79034e-08
8.85129e-08
-1.19589e-12
9.33995e-08
-9.3107e-08
-2.6797e-10
-8.66423e-08
-4.33932e-10
9.3358e-08
-1.83684e-10
-8.49275e-08
-7.68986e-10
9.34885e-08
1.72994e-10
-5.21907e-10
1.96104e-09
9.23642e-08
-6.93318e-08
6.21499e-08
-6.23341e-08
-6.29644e-08
6.14925e-08
1.43701e-10
-3.03572e-09
2.87066e-09
-1.39301e-08
6.38922e-11
1.30995e-10
1.77581e-09
8.9173e-09
-1.14272e-08
3.8298e-08
-3.44751e-08
-1.66594e-08
1.3775e-08
-5.79692e-11
-2.22063e-10
2.1197e-10
7.97639e-10
-1.50717e-10
3.57481e-10
4.56452e-09
1.02718e-09
-3.70937e-09
-2.65128e-10
3.14004e-10
-2.04981e-10
-2.50399e-09
1.30257e-08
2.34996e-09
-1.44491e-08
-2.56713e-09
-3.47945e-09
5.63134e-09
1.0491e-09
-2.67744e-09
1.42259e-08
-1.1479e-09
-2.72058e-09
3.50916e-09
-8.17082e-09
-1.9048e-08
-1.3326e-08
7.83795e-09
5.93568e-09
-2.72601e-10
-5.39464e-10
3.10652e-09
1.4446e-08
2.16755e-09
-1.71256e-09
-4.30354e-10
4.77689e-10
-2.66857e-10
1.60011e-08
-5.22184e-10
-1.58087e-08
-1.35277e-09
-1.17684e-09
3.06464e-10
-2.32241e-10
3.48347e-09
-1.68188e-08
5.40425e-10
-1.61381e-09
-2.2173e-09
-2.39046e-09
1.54423e-08
-9.06057e-08
-1.35054e-10
9.169e-08
-1.91989e-10
-8.91781e-08
-4.78319e-10
9.31111e-08
-2.75966e-10
-9.29226e-08
-5.81249e-10
-1.70686e-09
1.65359e-08
9.19914e-08
-1.97106e-10
3.09022e-11
-2.21484e-10
1.01267e-08
2.52033e-09
-8.12057e-09
-1.20469e-08
-5.67657e-09
8.45598e-09
1.42476e-09
-6.87316e-09
-6.1088e-09
9.01e-09
-1.31663e-10
1.01547e-08
1.94362e-08
-1.78508e-08
3.06254e-09
-1.25773e-08
3.03961e-09
-6.99675e-08
3.95899e-09
-2.04476e-08
-1.30766e-08
-5.38879e-10
-5.95661e-09
-1.53014e-08
9.12467e-09
-1.52139e-08
4.95662e-10
4.1879e-10
-1.74059e-09
-1.63989e-08
1.69067e-08
7.85463e-09
-8.15354e-09
-5.10861e-09
1.51965e-08
-1.70815e-09
7.375e-10
-1.20525e-09
3.07196e-10
1.18867e-08
3.32172e-09
7.0922e-08
-1.81518e-08
8.3179e-10
-1.48714e-08
-2.62903e-10
-3.08217e-10
-9.53094e-11
6.09536e-08
-6.12296e-08
-6.33483e-08
-6.31221e-08
-6.25907e-11
-2.62982e-10
-9.2597e-08
-6.04535e-08
6.24145e-08
6.50743e-08
-6.02805e-08
6.45524e-08
-6.04642e-08
6.37834e-08
-6.07321e-08
6.33494e-08
9.23199e-08
3.2552e-10
-6.42031e-09
7.51105e-08
-6.53684e-08
6.4225e-11
-6.4225e-11
8.96015e-10
-3.50883e-10
1.54958e-08
-6.15284e-11
6.15284e-11
3.99308e-10
1.56069e-09
1.38681e-08
1.32883e-08
-2.76529e-09
3.74484e-09
6.38672e-09
1.92242e-09
4.10415e-10
-2.85422e-10
-2.96683e-09
1.45209e-08
1.48444e-08
-4.27287e-09
1.18027e-08
2.16764e-10
1.72648e-10
2.85721e-09
-9.18277e-10
-1.64051e-09
-5.86529e-09
-1.87188e-10
-4.34419e-10
1.52895e-08
3.00783e-10
1.0181e-10
1.50297e-08
-2.59896e-08
1.75763e-08
2.61678e-09
1.36309e-09
2.44804e-09
-3.70893e-09
1.9188e-08
-1.79271e-08
-1.00652e-10
4.62687e-10
-1.44111e-09
-7.92185e-08
-7.07729e-08
1.39871e-09
-7.66626e-10
6.82072e-10
2.28819e-08
1.85406e-08
-6.37482e-09
9.28305e-11
-4.38192e-09
-2.44089e-09
2.9988e-08
1.49065e-10
1.48186e-08
7.35828e-08
7.01346e-11
5.35703e-10
-1.82882e-10
-2.44707e-10
-3.75197e-09
2.41492e-08
-1.48536e-08
1.09477e-09
-1.40421e-08
-6.67699e-11
2.0319e-08
-2.86477e-08
9.13938e-10
2.15639e-09
-4.48999e-10
)
;

boundaryField
{
    back
    {
        type            empty;
        value           nonuniform 0();
    }
    ingreso
    {
        type            calculated;
        value           nonuniform List<scalar> 
14
(
-1.54286e-08
-1.54288e-08
-1.54288e-08
-1.54288e-08
-1.54286e-08
-1.54283e-08
-1.54288e-08
-1.54288e-08
-1.54286e-08
-1.54286e-08
-1.54288e-08
-1.5428e-08
-1.5428e-08
-1.54286e-08
)
;
    }
    salida
    {
        type            calculated;
        value           nonuniform List<scalar> 2(1.01411e-07 1.14589e-07);
    }
    front
    {
        type            empty;
        value           nonuniform 0();
    }
    defaultFaces
    {
        type            calculated;
        value           uniform 0;
    }
}


// ************************************************************************* //
