/*--------------------------------*- C++ -*----------------------------------*\
  =========                 |
  \\      /  F ield         | OpenFOAM: The Open Source CFD Toolbox
   \\    /   O peration     | Website:  https://openfoam.org
    \\  /    A nd           | Version:  7
     \\/     M anipulation  |
\*---------------------------------------------------------------------------*/
FoamFile
{
    version     2.0;
    format      ascii;
    class       surfaceScalarField;
    location    "98";
    object      phi;
}
// * * * * * * * * * * * * * * * * * * * * * * * * * * * * * * * * * * * * * //

dimensions      [0 3 -1 0 0 0 0];

internalField   nonuniform List<scalar> 
1111
(
7.01476e-09
1.29451e-08
-1.60437e-08
-3.9162e-09
6.96151e-09
-1.17919e-08
1.18451e-08
-1.47439e-08
5.75187e-09
8.84676e-09
1.45311e-10
9.07029e-10
-1.04874e-09
-1.43772e-08
1.4519e-08
-1.43391e-08
1.41345e-08
1.1116e-09
-1.62151e-09
1.49145e-08
2.13561e-09
-2.80968e-09
9.44908e-09
-9.50592e-09
2.86652e-09
-6.72188e-09
-1.26127e-08
1.25981e-08
6.73644e-09
-5.02312e-08
-2.60847e-08
7.63158e-08
-8.11424e-09
7.71455e-09
7.36119e-09
3.29789e-09
3.70744e-10
-3.37828e-09
-2.90358e-10
1.58714e-08
-1.6253e-08
-2.32465e-08
2.36281e-08
-9.66565e-09
-7.8979e-09
8.80275e-09
8.7608e-09
-3.55777e-08
1.77206e-08
-3.23512e-08
5.02082e-08
9.49707e-09
-1.96278e-09
-1.42562e-08
-4.85123e-10
1.46325e-09
-2.88493e-09
1.9068e-09
-3.94845e-09
1.33234e-08
1.97097e-09
-1.1346e-08
8.81207e-09
-2.66865e-09
-1.50539e-08
8.91053e-09
3.72271e-08
-2.98958e-08
-7.33132e-09
-1.94406e-08
3.31913e-10
1.72337e-08
1.87502e-09
-1.06552e-09
4.23577e-09
-1.78451e-08
1.46748e-08
-6.12253e-08
-3.96178e-09
6.51871e-08
1.38007e-10
-1.1359e-09
-3.28963e-10
1.32686e-09
-1.76631e-09
-1.36383e-08
-7.95128e-11
-2.29885e-10
1.72225e-10
1.37173e-10
-1.03847e-08
-8.56506e-09
1.3125e-08
5.82483e-09
6.82763e-10
-2.12821e-09
-8.26277e-09
9.70822e-09
8.66552e-09
7.67769e-10
-9.72045e-09
2.87157e-10
-2.87657e-09
-8.03738e-09
1.11093e-08
-1.95319e-10
1.14098e-08
-1.02038e-09
-1.57737e-09
-7.96937e-10
8.02735e-10
-1.40672e-11
8.26951e-12
-7.53776e-11
6.66608e-10
1.99871e-10
-7.91101e-10
-4.18274e-10
-3.97238e-11
4.50047e-10
7.95011e-12
-4.9838e-11
-7.62432e-10
1.1403e-10
6.98241e-10
-1.07031e-10
-7.39742e-10
9.84097e-10
-1.83987e-08
-2.02603e-09
-3.40029e-10
3.83271e-11
-1.16571e-10
1.33814e-08
-1.32442e-08
4.09859e-09
-3.47758e-10
5.39069e-10
3.17347e-10
-5.08657e-10
-1.97449e-11
-1.30522e-09
1.12295e-09
2.02013e-10
-1.93145e-09
1.06245e-08
-1.15027e-08
-2.39168e-10
-1.44327e-10
4.34655e-11
-8.73175e-09
1.05289e-08
-9.91141e-09
1.22667e-08
-1.71446e-08
4.56301e-09
3.14889e-10
4.95219e-11
-1.41075e-10
-1.47614e-10
1.50721e-10
7.45451e-10
-9.3437e-11
-5.95265e-08
7.42326e-08
-1.47062e-08
9.99321e-10
-2.15581e-10
-1.11104e-09
3.27303e-10
1.14596e-09
1.03073e-08
-1.37136e-08
2.26032e-09
-1.8299e-09
7.79495e-09
-8.94847e-09
2.98341e-09
-6.74348e-09
5.60116e-09
5.69225e-09
-4.54993e-09
-7.74359e-09
-1.60203e-09
1.66672e-09
7.67889e-09
-1.80624e-10
-9.09151e-08
9.13007e-08
-2.04941e-10
-2.55804e-10
-8.97499e-08
9.01597e-08
-1.53964e-10
8.30781e-08
-1.49279e-09
1.10284e-10
-8.16956e-08
-2.81707e-09
-5.17048e-10
6.14289e-10
8.10859e-10
-4.25827e-10
3.90717e-09
-1.0047e-09
3.50429e-09
-6.40676e-09
-9.16997e-10
8.52139e-10
-1.49282e-08
6.58026e-09
9.87402e-09
1.06399e-09
-1.06572e-08
-2.80786e-10
-6.08631e-09
1.35211e-08
9.83464e-10
-8.41827e-09
1.4378e-08
-4.55147e-09
3.77654e-09
-1.36031e-08
1.53931e-08
1.67514e-09
-1.63943e-09
-1.99304e-10
-2.00651e-08
-7.42443e-09
2.76888e-08
1.44546e-08
-8.80829e-09
-1.88482e-09
8.01578e-09
-1.22173e-08
2.74106e-11
2.91677e-11
-1.16762e-09
-3.61574e-08
-2.33691e-08
8.33221e-09
2.91617e-10
3.64286e-09
-6.99076e-09
1.11976e-08
6.32212e-09
-5.65147e-10
2.96438e-10
4.55964e-10
-1.87255e-10
5.71741e-09
-4.80278e-09
3.67447e-09
-4.5891e-09
-4.09119e-10
-6.00909e-10
2.47596e-10
6.11498e-10
-5.3719e-10
1.56496e-11
-7.39691e-10
6.48665e-10
-1.8184e-08
2.40799e-09
1.58219e-09
1.41938e-08
2.01847e-10
-6.56811e-10
-1.10182e-10
-4.18276e-09
-1.51592e-08
1.15794e-09
5.61109e-09
1.209e-08
-5.232e-09
-1.24691e-08
1.64026e-08
7.25153e-10
-1.5865e-08
-1.2627e-09
-6.45761e-10
4.2434e-10
5.17862e-10
-3.12779e-10
1.51015e-10
1.61764e-10
-7.45679e-09
-3.52518e-09
4.23849e-09
-1.9722e-10
3.09633e-10
-1.12413e-10
1.10125e-09
-1.56687e-08
-7.81581e-10
9.97533e-09
-1.11252e-08
-9.03652e-10
-2.97128e-10
1.29544e-08
4.44256e-09
-4.18415e-09
-1.32128e-08
7.1503e-11
7.18881e-09
-7.96794e-09
6.38029e-09
-1.62034e-09
-9.03334e-09
8.23927e-09
2.41441e-09
-1.92599e-09
6.8605e-10
-1.39192e-08
-1.05629e-10
-9.15892e-11
3.02982e-10
6.72749e-10
-8.71932e-09
7.64136e-10
1.72754e-08
-1.63696e-09
-1.20531e-08
1.34304e-08
-1.37728e-09
1.22486e-08
1.39295e-08
-1.54973e-08
-1.06808e-08
-4.92201e-10
9.1834e-10
-4.26139e-10
2.58853e-10
-1.07553e-10
-1.513e-10
1.27297e-10
3.19636e-10
-4.46933e-10
1.31281e-09
-1.05635e-09
-2.56464e-10
-1.05451e-08
9.1793e-10
9.62722e-09
1.93469e-09
-6.21872e-10
8.97467e-09
-1.5411e-08
7.74537e-09
-9.27229e-09
6.1375e-11
3.64143e-09
-4.04915e-10
-2.30543e-09
2.36681e-09
-6.47163e-09
7.80726e-09
-1.33563e-09
-4.91099e-10
4.27474e-09
1.23532e-10
1.72626e-08
-1.44786e-08
-1.63805e-09
-6.11393e-09
5.42974e-09
-3.20508e-10
-1.82565e-10
5.78887e-09
-5.77194e-09
-1.69272e-11
6.86028e-09
4.54938e-09
-3.82754e-11
-1.59488e-08
1.04688e-08
1.77286e-08
5.7998e-09
8.24929e-09
8.18217e-09
-6.84952e-09
1.40449e-09
-1.19496e-08
2.63416e-10
1.41761e-09
-1.30041e-08
2.78875e-09
-4.21945e-10
1.1289e-08
-1.05638e-08
-2.73151e-10
-7.37531e-10
-1.38182e-08
7.71793e-09
7.04591e-10
1.92042e-12
-8.88973e-09
5.00467e-09
-3.00951e-08
-1.25154e-08
-2.82618e-09
1.52341e-09
1.41105e-08
1.10588e-08
-1.08178e-08
-1.43515e-08
1.53872e-08
-3.14958e-09
-1.22376e-08
1.60844e-09
3.99436e-09
-9.81165e-10
-8.86396e-10
-8.28963e-10
1.12024e-09
5.95119e-10
-2.20924e-10
3.39839e-10
3.3705e-10
6.21429e-08
-6.2169e-08
2.60821e-11
6.20627e-08
-6.23669e-08
3.04154e-10
8.37372e-10
6.47318e-08
-6.55589e-08
8.27077e-10
6.4124e-08
6.07825e-10
-2.23935e-10
-6.65044e-08
9.45518e-10
-6.20587e-08
6.19239e-08
1.34828e-10
1.31534e-09
-6.78197e-08
-6.22188e-08
1.60048e-10
1.26564e-08
-6.38764e-10
1.25499e-09
-3.69856e-09
3.08233e-09
3.0154e-10
-1.16383e-09
8.91729e-10
-5.40076e-10
1.37181e-09
-1.60001e-09
7.68279e-10
1.3766e-09
-1.46421e-09
1.1677e-10
-4.56546e-11
-3.44506e-09
2.7125e-09
-1.93974e-09
2.6723e-09
-4.02468e-10
-2.71862e-09
2.48232e-09
-3.51955e-09
-5.83316e-09
5.73201e-10
-5.91303e-10
1.16461e-09
1.09893e-09
-6.45799e-09
7.89541e-09
3.11195e-09
1.97394e-08
-4.3522e-09
-6.82552e-10
2.81317e-10
9.74436e-10
-1.00917e-08
-2.60657e-08
5.28425e-09
-4.24039e-09
-3.18404e-09
2.14018e-09
9.62345e-11
2.4547e-11
3.29267e-10
-2.53099e-09
3.31347e-09
8.98501e-09
7.09654e-10
-1.91876e-10
2.0751e-09
-2.28569e-09
1.80429e-09
1.47156e-08
1.33244e-08
-2.69311e-08
3.27109e-08
6.32628e-09
-2.28382e-08
-1.04192e-08
1.85215e-08
-1.80087e-08
1.0546e-08
-4.75949e-11
-2.1992e-10
-1.19669e-09
-1.67511e-09
-2.89537e-09
3.39598e-09
1.51405e-08
-6.23091e-10
-1.38313e-08
-7.50022e-10
-2.27784e-09
3.09247e-10
1.54709e-08
1.77663e-08
1.37013e-08
7.46231e-10
-1.71565e-09
-1.27319e-08
-1.48837e-09
5.9782e-09
1.25873e-08
-4.56896e-10
-1.02038e-09
-3.64749e-09
2.79658e-09
3.56341e-09
2.50073e-09
1.45179e-08
4.2872e-09
-1.43626e-08
1.80597e-08
-1.76135e-09
2.43154e-09
-3.35381e-09
1.91001e-09
-4.94207e-09
1.29366e-08
-1.1943e-08
-1.40486e-08
3.1448e-10
8.79203e-09
-1.79108e-09
1.49548e-09
1.46021e-09
-8.66187e-09
7.04503e-10
-4.55806e-09
-5.99569e-09
1.21831e-08
-1.48493e-08
1.0523e-09
1.67596e-09
-2.20247e-09
1.68203e-08
-1.62938e-08
-1.11246e-09
1.41907e-08
3.09214e-09
-4.46104e-09
-1.40421e-08
7.57682e-09
-1.7415e-08
-8.17055e-09
6.85365e-09
5.87302e-09
1.46231e-08
-1.00541e-08
3.01615e-09
9.45233e-09
9.83531e-09
3.8599e-09
-4.20973e-09
2.17749e-08
-1.92337e-08
5.03559e-09
-1.06156e-08
2.17002e-09
5.68393e-09
1.3958e-08
-3.42083e-10
1.28139e-08
-1.35842e-08
-1.92761e-09
1.71853e-09
-7.15053e-10
9.24139e-10
1.10677e-08
-6.36869e-09
7.39097e-09
-1.10113e-08
1.45965e-09
-4.74478e-09
1.15027e-08
-1.199e-08
-7.58057e-09
9.229e-09
9.41932e-09
1.29387e-08
5.87194e-10
-1.38679e-08
1.43768e-09
7.8149e-10
-1.11449e-08
-6.72591e-09
1.02902e-08
-1.37008e-09
2.51266e-09
-8.9923e-09
4.77903e-09
-5.29774e-09
1.16153e-08
-3.4775e-09
-1.18308e-08
3.69298e-09
-4.47002e-09
1.13405e-08
1.81895e-09
1.11421e-09
-5.04954e-09
-1.7837e-08
1.05211e-08
1.23654e-08
7.27853e-10
-1.10505e-08
-1.00371e-08
1.60381e-08
1.26302e-08
2.8741e-09
-9.82036e-09
-1.33372e-08
-3.2507e-10
-1.276e-08
1.61865e-10
-7.68053e-10
1.17155e-08
1.25498e-08
-8.23819e-09
1.66897e-08
-1.60589e-08
3.65643e-09
-4.91725e-10
1.78702e-09
1.28985e-08
-3.93053e-09
-1.27227e-08
-5.0277e-09
1.83921e-09
4.60609e-09
1.23265e-08
-7.24112e-09
9.72859e-10
-1.66174e-09
5.75393e-10
-8.41263e-10
5.91555e-09
2.64054e-08
-6.29264e-11
-9.54826e-09
9.61119e-09
2.86031e-08
-2.23556e-08
2.21122e-08
1.97641e-08
-1.27209e-08
-2.70152e-09
1.51309e-08
1.66691e-10
-1.21444e-08
-4.48895e-10
-6.01087e-09
-1.85029e-09
2.18688e-09
1.48236e-09
-4.52725e-10
-1.11367e-08
1.15688e-08
2.06517e-11
3.04669e-09
-5.09098e-09
-1.11454e-08
1.0684e-08
-9.20165e-10
-1.08592e-08
-2.33393e-10
-1.1344e-08
-2.50468e-09
-1.20793e-08
2.16454e-09
7.89897e-09
5.14765e-09
-4.46993e-10
-1.18212e-08
1.18154e-08
5.60891e-10
-8.86785e-09
5.1384e-09
-1.54317e-09
2.20639e-09
-2.02892e-09
-1.30592e-08
-1.25435e-08
1.20335e-08
-1.01819e-08
-1.58071e-08
1.00402e-08
9.29059e-09
8.21751e-10
2.70606e-09
-1.22543e-08
1.15113e-08
1.66376e-09
3.89796e-09
2.79466e-10
-4.76899e-10
-2.11685e-10
-4.15367e-09
2.51908e-09
-6.43252e-10
1.66014e-10
-1.95616e-10
2.96019e-11
-2.69845e-09
1.30944e-08
2.23422e-09
2.53598e-09
1.31913e-10
-1.35239e-09
-5.42637e-10
-2.29359e-09
-2.55499e-10
1.30466e-08
1.0112e-08
-3.11245e-10
6.78264e-09
-1.24311e-09
-5.22828e-09
-9.82896e-09
-5.1339e-09
1.25871e-10
4.01439e-11
4.87359e-09
1.33371e-09
-1.72578e-08
-3.18698e-10
-7.39106e-10
-2.77889e-09
1.0274e-09
3.10771e-09
6.19453e-08
-8.56719e-11
-6.18597e-08
6.23698e-08
1.8905e-10
-6.25589e-08
-1.41167e-08
-2.72937e-10
1.44651e-08
-7.55332e-11
3.13166e-09
-1.77446e-09
2.48635e-09
1.80078e-09
-4.51846e-09
-2.90479e-10
-5.03562e-10
4.0878e-10
-9.24711e-11
4.06163e-10
-2.71023e-10
1.97195e-08
1.04674e-09
-1.58926e-08
-1.28989e-10
-1.93736e-09
1.25551e-08
2.28083e-09
1.80484e-09
5.3454e-09
-2.12483e-09
-7.72331e-08
-2.4178e-08
-4.98241e-09
1.58464e-08
2.45942e-09
-2.31409e-11
-2.9137e-09
-1.0454e-09
2.87984e-10
-2.62956e-10
-9.8684e-09
-3.649e-10
1.02333e-08
-1.08822e-08
-6.58306e-09
1.07394e-08
-9.49508e-09
8.75207e-09
2.39507e-10
1.45588e-09
9.40692e-09
-9.35428e-09
-5.26428e-11
5.77289e-10
8.67109e-11
1.07828e-08
5.52557e-10
-7.36185e-10
-6.97117e-11
-1.42475e-08
-4.61482e-10
-1.38373e-08
1.27219e-08
-1.18962e-08
-6.60355e-08
6.49919e-08
1.04363e-09
2.2488e-10
-2.00332e-10
1.20529e-08
-2.0339e-10
7.77494e-12
-2.06949e-09
2.7581e-09
-3.42058e-09
-1.34704e-08
-1.62419e-09
2.57438e-09
-4.69521e-09
-1.4125e-08
1.56243e-09
5.55253e-09
9.69784e-09
-9.06519e-09
-2.26646e-10
2.32566e-11
-9.30834e-09
-1.33928e-08
1.5105e-10
-6.26962e-08
2.36252e-10
6.246e-08
6.95215e-10
6.34287e-08
-2.23691e-10
-1.64343e-09
-1.45001e-08
1.0799e-10
-6.34061e-08
6.32982e-08
1.8352e-10
-6.29474e-08
6.27638e-08
3.27503e-10
6.17999e-08
1.50258e-10
-6.19501e-08
6.16311e-08
1.68749e-10
-8.78899e-08
8.84991e-08
-1.4241e-12
9.3394e-08
-9.31006e-08
-2.67351e-10
-8.6629e-08
-4.3378e-10
9.33531e-08
-1.82955e-10
-8.49157e-08
-7.67726e-10
9.34838e-08
1.73407e-10
-5.22269e-10
1.96129e-09
9.23599e-08
-6.93125e-08
6.21405e-08
-6.23211e-08
-6.2952e-08
6.14888e-08
1.42348e-10
-3.13515e-09
2.95425e-09
-1.41817e-08
4.56222e-11
8.02499e-11
1.24279e-09
8.71588e-09
-1.13845e-08
3.83136e-08
-3.45473e-08
-1.67703e-08
1.38071e-08
-3.64533e-11
-2.06034e-10
1.37914e-10
5.96685e-10
-1.20039e-10
3.07897e-10
4.44037e-09
1.04418e-09
-3.57454e-09
-1.54053e-10
1.9238e-10
-1.10586e-10
-2.58374e-09
1.32414e-08
2.43678e-09
-1.44286e-08
-2.63025e-09
-3.29443e-09
5.5331e-09
1.04745e-09
-2.62964e-09
1.43281e-08
-1.17737e-09
-1.77362e-09
1.87889e-09
-8.11715e-09
-1.90732e-08
-1.34989e-08
8.02081e-09
5.79255e-09
-2.06549e-10
-5.66606e-10
2.96003e-09
1.44864e-08
2.28545e-09
-1.85741e-09
-3.74034e-10
4.243e-10
-2.32832e-10
1.59362e-08
-5.93393e-10
-1.57077e-08
2.40943e-11
-1.89581e-10
3.30504e-10
-2.5936e-10
3.42811e-09
-1.62895e-08
4.37471e-10
-1.49954e-09
-2.08528e-09
-2.29619e-09
1.57046e-08
-9.05928e-08
-1.38859e-10
9.16801e-08
-1.90343e-10
-8.91652e-08
-4.76705e-10
9.31033e-08
-2.75218e-10
-9.29138e-08
-5.41277e-10
-1.58014e-09
1.68299e-08
9.19814e-08
-1.96848e-10
2.9131e-11
-2.20956e-10
9.77823e-09
2.48101e-09
-7.32376e-09
-1.22275e-08
-5.67737e-09
8.40562e-09
1.49706e-09
-6.79072e-09
-5.99255e-09
9.04168e-09
-6.10639e-11
1.01373e-08
1.95011e-08
-1.79878e-08
3.08566e-09
-1.27437e-08
3.1066e-09
-6.99674e-08
3.93182e-09
-2.06006e-08
-1.30651e-08
-4.69417e-10
-5.93413e-09
-1.52925e-08
9.08221e-09
-1.51224e-08
4.08794e-10
3.45927e-10
-1.91847e-09
-1.66797e-08
1.70929e-08
7.17845e-09
-7.6955e-09
-4.57992e-09
1.53071e-08
-1.67733e-09
6.9834e-10
-8.75891e-10
9.79247e-11
1.19661e-08
3.3209e-09
7.09117e-08
-1.8249e-08
7.09941e-10
-1.50401e-08
-2.2507e-10
-2.61375e-10
-1.09145e-10
6.09514e-08
-6.12266e-08
-6.3377e-08
-6.31442e-08
-6.42385e-11
-2.622e-10
-9.25874e-08
-6.04535e-08
6.24148e-08
6.51022e-08
-6.02801e-08
6.45799e-08
-6.04631e-08
6.38122e-08
-6.07304e-08
6.33784e-08
9.23102e-08
2.66033e-10
-6.34849e-09
7.51209e-08
-6.54515e-08
3.26411e-11
-3.26411e-11
1.54648e-10
-3.15513e-10
1.54797e-08
-1.64983e-11
1.64983e-11
3.13642e-10
1.52184e-09
1.3907e-08
1.34222e-08
-2.71923e-09
3.71925e-09
6.63093e-09
1.7944e-09
3.55989e-10
-2.41218e-10
-2.97337e-09
1.45851e-08
1.48449e-08
-4.28878e-09
1.18197e-08
1.7269e-10
1.38966e-10
2.71654e-09
-8.0219e-10
-1.51235e-09
-5.84181e-09
-2.04719e-10
-3.85497e-10
1.53104e-08
2.39872e-10
5.50051e-11
1.44145e-08
-2.62359e-08
1.78086e-08
2.66813e-09
1.2406e-09
2.50058e-09
-3.72258e-09
1.93461e-08
-1.81241e-08
-7.29864e-11
9.5763e-11
-1.44096e-09
-7.9211e-08
-7.07535e-08
1.28136e-09
-4.394e-10
6.27354e-10
2.30049e-08
1.86084e-08
-6.37637e-09
7.49403e-11
-4.25577e-09
-2.52243e-09
2.99495e-08
1.58283e-10
1.48183e-08
7.35798e-08
4.45653e-11
5.0974e-10
-1.47316e-10
-2.05647e-10
-3.61651e-09
2.43058e-08
-1.48691e-08
9.37723e-10
-1.41898e-08
-4.76107e-11
2.03972e-08
-2.87243e-08
9.46833e-10
1.90298e-09
-2.44547e-10
)
;

boundaryField
{
    back
    {
        type            empty;
        value           nonuniform 0();
    }
    ingreso
    {
        type            calculated;
        value           nonuniform List<scalar> 
14
(
-1.54286e-08
-1.54288e-08
-1.54288e-08
-1.54288e-08
-1.54286e-08
-1.54283e-08
-1.54288e-08
-1.54288e-08
-1.54286e-08
-1.54286e-08
-1.54288e-08
-1.5428e-08
-1.5428e-08
-1.54286e-08
)
;
    }
    salida
    {
        type            calculated;
        value           nonuniform List<scalar> 2(1.01411e-07 1.14589e-07);
    }
    front
    {
        type            empty;
        value           nonuniform 0();
    }
    defaultFaces
    {
        type            calculated;
        value           uniform 0;
    }
}


// ************************************************************************* //
