/*--------------------------------*- C++ -*----------------------------------*\
  =========                 |
  \\      /  F ield         | OpenFOAM: The Open Source CFD Toolbox
   \\    /   O peration     | Website:  https://openfoam.org
    \\  /    A nd           | Version:  7
     \\/     M anipulation  |
\*---------------------------------------------------------------------------*/
FoamFile
{
    version     2.0;
    format      ascii;
    class       volVectorField;
    location    "98";
    object      U;
}
// * * * * * * * * * * * * * * * * * * * * * * * * * * * * * * * * * * * * * //

dimensions      [0 1 -1 0 0 0 0];

internalField   nonuniform List<vector> 
591
(
(0.000836799 -6.51996e-06 1.2165e-18)
(0.000832371 -6.14695e-06 -6.62026e-19)
(0.000854236 1.71971e-05 5.7022e-20)
(0.000867217 -2.46763e-05 -1.49032e-19)
(0.00085492 -9.72844e-06 2.25465e-19)
(0.000803564 -3.85755e-05 -1.39583e-19)
(0.000563819 -0.000228722 8.0607e-19)
(0.000803762 4.34309e-06 2.10637e-18)
(0.00572402 0.00251014 9.88018e-19)
(0.000814994 -1.64961e-06 2.44661e-18)
(4.60654e-05 0.000160922 1.21799e-18)
(0.000938455 0.00139411 9.40788e-21)
(0.000801246 4.22728e-06 1.32267e-18)
(0.00160336 0.00240404 -7.87426e-19)
(0.000803295 1.44393e-06 -4.46336e-19)
(4.51197e-05 -0.000154211 2.3274e-22)
(0.000140705 0.000669841 7.0485e-19)
(0.000817715 7.94586e-05 -4.96928e-19)
(0.00189877 0.000392176 4.73774e-19)
(0.00135962 0.000256596 -2.47082e-19)
(0.000831542 -8.83383e-06 3.73118e-19)
(0.00340052 0.00655986 -8.14537e-20)
(2.32943e-05 6.40033e-05 2.70884e-19)
(0.000836074 -2.50596e-05 -4.51543e-19)
(6.45632e-06 -1.1371e-05 3.58827e-19)
(0.000791284 4.28441e-05 0)
(9.46133e-05 0.000467241 1.5994e-19)
(0.00057283 -1.31742e-06 -1.78789e-19)
(0.000765032 4.71585e-05 1.14918e-18)
(0.000806509 7.00874e-05 5.84502e-19)
(4.93378e-05 -5.52737e-06 -5.26255e-24)
(2.19806e-05 -3.91605e-05 3.52084e-19)
(2.84298e-05 -2.55996e-06 -4.64103e-20)
(3.78365e-05 -1.22415e-05 0)
(4.64047e-05 -1.28533e-05 1.13116e-18)
(0.0011707 0.000139927 1.79849e-19)
(2.38849e-05 -4.21241e-06 4.4703e-20)
(0.000824214 4.47915e-07 3.13633e-23)
(2.31865e-05 3.84737e-05 2.65963e-19)
(-6.56775e-06 -6.23277e-05 -8.53661e-19)
(0.000659024 -0.000191201 9.5879e-19)
(1.84909e-05 -4.97806e-06 4.54708e-20)
(0.000813555 1.78052e-05 -1.57881e-18)
(0.000832125 5.00681e-05 -6.90975e-19)
(1.19335e-05 -5.5915e-06 0)
(4.81749e-05 3.91004e-06 8.51656e-20)
(0.00134909 0.00450322 8.92868e-19)
(6.80775e-05 1.04442e-05 8.63411e-20)
(0.000802464 1.66249e-05 0)
(0.000394026 -0.000230703 6.77031e-19)
(0.000389929 0.000266376 5.11808e-21)
(0.000404021 3.25175e-05 -1.00353e-18)
(0.00634781 0.0109404 -7.68758e-19)
(0.00622447 0.0107954 1.5281e-20)
(0.00561445 0.0103783 1.45612e-18)
(0.0008057 4.71207e-05 0)
(6.10773e-05 2.52935e-05 0)
(0.000320223 -6.73784e-06 2.59331e-23)
(5.58326e-05 6.6481e-06 -3.46372e-19)
(0.000812321 -6.9716e-06 0)
(0.000662584 2.83859e-05 3.17474e-19)
(0.000845619 2.68107e-05 2.20773e-18)
(0.000811062 3.88371e-05 -5.37644e-19)
(0.000800074 1.16208e-05 -3.15676e-19)
(0.00171349 0.000487184 5.42522e-19)
(0.00081056 3.17696e-05 -1.14661e-18)
(0.000838447 3.57035e-05 -5.23945e-19)
(7.02661e-05 -7.27926e-06 -1.73367e-19)
(0.000690282 0.00225822 0)
(0.000845313 4.90525e-05 0)
(0.000792076 2.65416e-05 -1.39258e-18)
(3.35243e-05 1.32303e-05 0)
(0.000293158 0.000263128 3.26781e-19)
(3.22597e-05 -1.53355e-05 0)
(3.43156e-05 -5.49507e-06 1.59432e-19)
(6.19638e-06 -3.45353e-05 -3.36578e-20)
(0.000803096 7.90434e-05 2.46921e-19)
(3.88792e-05 8.23664e-06 0)
(0.000812093 5.54787e-05 4.47433e-19)
(0.000781835 0.000295586 2.10676e-19)
(0.000960846 6.82392e-05 -3.97693e-20)
(3.82115e-05 1.93138e-05 -4.51749e-20)
(3.52097e-06 -1.18059e-05 0)
(0.000442997 0.000210708 1.70147e-19)
(2.68078e-06 1.63565e-05 0)
(0.000806256 4.75765e-05 -6.07587e-19)
(0.000646544 -0.000115306 0)
(5.6421e-05 -4.78692e-06 -1.74436e-19)
(1.05569e-06 -1.65635e-05 0)
(0.000836391 0.000242158 -3.4117e-19)
(2.04757e-06 -6.55007e-06 0)
(0.000432535 0.000319456 -1.34897e-23)
(0.000545025 0.000107577 0)
(0.000816216 4.41511e-05 -3.09322e-24)
(2.17596e-06 9.74072e-06 -4.21607e-20)
(0.000473322 -2.84391e-05 1.76304e-18)
(0.00101829 7.35123e-05 4.15897e-20)
(0.00078456 4.72468e-05 6.41572e-22)
(0.000747727 0.000659736 2.6944e-19)
(6.8936e-06 3.88593e-05 0)
(-6.43123e-06 -1.83376e-05 -3.12193e-19)
(-3.72352e-05 -1.83768e-05 -1.10175e-18)
(5.04188e-06 6.44705e-05 -5.96222e-19)
(0.000593374 -2.89628e-05 0)
(9.16551e-06 8.77837e-05 0)
(0.000820842 3.45335e-05 2.1815e-18)
(0.000800858 3.69813e-05 1.5339e-18)
(0.000451146 -0.000112939 0)
(3.89851e-05 0.000207311 -8.9515e-19)
(1.23401e-06 0.000150885 4.96795e-19)
(5.60882e-05 0.000390055 6.25143e-19)
(0.000311545 6.53585e-05 -9.36974e-19)
(0.000801872 1.99521e-05 1.37382e-19)
(0.000256869 -7.17593e-05 5.31083e-19)
(4.18921e-06 2.45119e-05 0)
(1.8713e-05 0.000268656 -1.09395e-18)
(0.000326274 0.000318221 -1.61672e-19)
(-1.75133e-06 -1.33716e-05 1.46525e-19)
(0.000670047 0.000805652 0)
(0.000374778 0.000380757 5.74298e-20)
(0.000825674 2.93687e-05 1.07038e-18)
(0.000799736 1.74093e-06 -2.72475e-18)
(6.43141e-06 1.00257e-05 0)
(0.00065925 -4.13795e-05 -1.12281e-19)
(0.000324082 -0.000150482 1.24287e-18)
(0.00262021 0.000810296 -3.36525e-19)
(8.13763e-06 0.000116943 -6.13136e-19)
(8.66215e-06 0.000144971 1.61952e-18)
(0.000657361 2.56252e-05 -3.89703e-20)
(5.38811e-05 -1.64559e-05 -7.49972e-19)
(0.000812052 3.91952e-05 -3.90102e-19)
(0.000708067 2.76556e-05 -4.10462e-20)
(3.15519e-05 0.000315616 -5.97051e-19)
(0.000504139 5.15165e-05 -4.93813e-19)
(4.11138e-05 -4.38747e-06 1.56112e-19)
(0.00084232 4.14894e-05 -1.08756e-18)
(0.00153127 0.000234942 -1.13656e-18)
(5.20062e-06 5.18086e-05 4.96309e-19)
(0.000813468 3.70852e-05 -5.03391e-19)
(0.000924785 0.000554608 -7.84919e-20)
(0.000149868 0.000778877 0)
(0.00060195 6.21744e-05 0)
(0.000278409 3.96977e-05 -1.60914e-18)
(5.86427e-05 5.18881e-05 -1.37376e-18)
(2.68567e-05 1.73775e-05 0)
(0.00424775 0.00740091 -1.01975e-20)
(0.00422585 0.00737251 3.16667e-20)
(0.00442802 0.00757525 -4.98597e-21)
(0.00420555 0.00773345 0)
(0.00419801 0.00759927 5.77357e-19)
(0.00424471 0.00740199 -9.20409e-20)
(0.00420931 0.00804086 4.84586e-19)
(0.00429047 0.00742339 0)
(0.00420773 0.00853365 6.16922e-19)
(0.00432703 0.00745206 2.23968e-19)
(0.000835698 2.24891e-05 -1.37231e-18)
(0.000784415 6.18072e-05 0)
(0.000210305 3.7594e-05 1.27673e-19)
(4.44282e-05 1.21872e-05 8.71627e-20)
(7.22018e-05 3.75566e-05 6.79854e-19)
(9.86459e-05 3.20449e-05 -3.41586e-19)
(9.0332e-05 -2.46295e-06 0)
(4.14546e-05 2.71954e-06 8.18162e-20)
(0.000207963 0.000119967 0)
(0.000159739 2.72243e-05 -5.24201e-20)
(0.000348427 0.000214043 -5.09152e-21)
(5.09633e-05 3.71249e-05 -4.37546e-19)
(8.33342e-05 1.93613e-05 -8.52262e-20)
(8.50916e-05 5.35095e-05 1.31164e-21)
(0.000262048 0.000359173 -6.66048e-19)
(0.000110376 0.000990691 0)
(3.8318e-05 4.67789e-05 3.42978e-19)
(0.000199761 0.00174025 0)
(0.000209001 0.000245163 7.0452e-19)
(3.03402e-05 -2.94699e-06 1.11466e-19)
(0.000494761 0.000159046 -1.72264e-19)
(0.000776923 2.80654e-05 -1.92368e-18)
(3.60808e-05 -1.77196e-06 4.86921e-24)
(0.000139677 1.24127e-05 2.24539e-19)
(0.000246703 7.86991e-05 -8.99123e-20)
(0.000883239 0.000695277 3.34877e-19)
(0.000727288 0.00163465 -9.23371e-21)
(0.000396417 0.00141839 -9.38145e-21)
(0.00103112 0.000547934 0)
(8.95544e-05 -2.13457e-05 1.11844e-18)
(0.000106326 4.52515e-06 -4.42876e-20)
(0.000473727 -0.000269434 -1.13611e-18)
(0.00082529 4.36288e-05 0)
(0.000174812 -1.75127e-05 3.63226e-19)
(0.000305993 0.00129696 0)
(0.00108933 0.000773872 -7.30052e-20)
(0.00082701 2.75261e-05 -1.86503e-19)
(6.49538e-05 -2.41291e-05 -2.99903e-19)
(0.000842154 0.000314501 -2.07995e-20)
(4.40387e-05 -2.11236e-05 -5.99333e-19)
(0.000227961 0.000164821 8.63702e-20)
(0.000232149 0.000303413 -3.44942e-19)
(0.00089874 0.00025341 0)
(0.000827084 5.78551e-05 0)
(0.000267376 0.000121362 1.76809e-19)
(0.000232033 -1.87593e-05 7.44122e-24)
(0.00018515 0.000196981 0)
(0.000307254 0.000644883 -5.55599e-21)
(0.000362958 -3.20093e-05 0)
(0.000382804 0.000598153 0)
(0.000103676 7.26165e-05 -1.34638e-21)
(0.000810655 3.11485e-05 -9.57238e-19)
(0.000805239 1.6994e-05 7.96654e-19)
(0.000123013 4.63445e-05 -1.49821e-19)
(0.000973852 0.000145908 8.50171e-20)
(0.000841346 3.79328e-05 3.33576e-19)
(0.00082267 3.52942e-05 -2.94005e-19)
(0.0010337 0.000421302 0)
(0.000449306 0.000107952 6.2428e-19)
(0.000914483 0.0003239 2.09086e-20)
(0.000593387 0.000150257 0)
(0.000275358 0.0004435 4.09567e-19)
(0.0002633 0.000207686 -8.44006e-20)
(0.00110501 0.000384932 -7.81917e-19)
(0.000641382 0.000102448 -1.79244e-19)
(0.000822729 7.68413e-05 -7.45842e-21)
(0.000845922 2.28466e-05 9.40026e-20)
(5.15856e-05 -8.53121e-05 -1.98079e-18)
(0.000746518 0.000379512 2.19187e-19)
(0.000686893 6.94891e-05 2.30587e-20)
(0.00071722 0.000278956 1.62397e-23)
(0.000740782 0.000461723 -4.09591e-19)
(0.000853999 1.57342e-05 9.06831e-20)
(6.76944e-05 7.11674e-05 0)
(0.00066388 0.00042505 -4.65819e-20)
(0.000181494 8.24029e-05 0)
(0.000374224 0.000501522 -2.6479e-19)
(0.00031269 0.000156599 0)
(0.00068626 0.000205749 3.55135e-19)
(0.000660629 0.000259483 -4.37145e-20)
(7.90477e-05 9.65325e-05 6.19008e-19)
(0.000886701 9.72961e-05 -1.63869e-18)
(5.15291e-05 1.746e-05 2.57127e-19)
(0.000899417 7.39661e-05 -1.68609e-18)
(0.000850284 9.10435e-05 1.63043e-19)
(0.000815088 3.75844e-05 1.91218e-18)
(0.000822492 3.30663e-05 -1.32811e-19)
(0.000747188 7.03945e-05 0)
(0.000805193 1.93836e-05 8.95396e-19)
(0.00097401 0.00023817 -4.26982e-19)
(0.000789941 0.000101067 -4.83609e-19)
(0.000783828 0.000237919 -8.80988e-20)
(0.00019435 -0.000196651 -2.07503e-18)
(0.000764906 8.18383e-05 8.873e-19)
(0.000644501 0.000591367 0)
(5.66811e-05 -0.000122711 0)
(0.00123038 0.000476516 4.97176e-19)
(0.000548311 -5.57169e-05 -3.2709e-18)
(0.00135583 0.000417942 5.76303e-19)
(0.00125493 0.000719923 -6.38867e-20)
(0.000817376 3.45025e-05 -2.12697e-19)
(0.000844318 6.66748e-05 -1.4279e-18)
(0.000814396 2.77021e-05 1.58722e-18)
(0.000814853 2.03702e-05 9.7779e-20)
(0.000676022 0.000353423 -4.40301e-20)
(9.86339e-05 0.000112729 8.85567e-24)
(0.000766696 -2.86103e-05 2.64918e-19)
(0.000207243 -0.000259183 -7.31035e-19)
(0.00064126 0.000182293 0)
(0.000726984 5.13146e-05 9.90112e-20)
(0.00072128 9.70268e-06 -3.80704e-19)
(0.000397439 0.000162434 3.93274e-20)
(0.000813385 0.0005105 -1.6544e-19)
(0.000144424 6.36759e-05 4.08039e-25)
(0.000821088 0.000412955 0)
(0.00099052 0.000315626 4.15658e-20)
(0.000770249 -6.04659e-05 -6.15942e-19)
(0.000356159 9.25284e-05 4.97713e-19)
(0.000905589 0.000427945 0)
(4.41443e-05 2.66533e-05 1.33677e-19)
(0.000495722 0.00026107 2.13901e-19)
(0.000549154 -0.000172252 -7.09234e-19)
(9.15052e-05 -0.000175865 -1.05577e-18)
(0.000827088 4.11038e-05 -4.8657e-19)
(0.000759935 -6.20467e-05 -1.94543e-19)
(0.000551162 0.000728724 -1.17416e-18)
(0.000856051 4.60457e-05 -6.74432e-20)
(0.000562984 -9.7764e-06 1.28226e-18)
(0.000719794 9.94912e-05 2.27716e-20)
(0.000545233 0.000203308 -1.65647e-19)
(2.33418e-05 -1.84869e-05 -8.75623e-20)
(0.000148639 -6.17225e-05 2.40538e-18)
(1.20562e-05 5.29305e-07 -1.94807e-19)
(0.000844072 0.000119636 3.63646e-19)
(0.000683067 0.00013477 0)
(0.000168871 -0.000113012 -1.04793e-18)
(0.000110286 -2.83618e-05 3.12717e-19)
(9.09136e-05 -4.16096e-05 1.57027e-23)
(0.000811708 0.000105541 -3.19176e-19)
(0.000143993 -2.44003e-05 0)
(0.000597686 0.000237901 0)
(0.000111387 0.00032155 -3.62778e-19)
(0.000869784 0.000101777 2.10785e-18)
(9.79984e-06 6.95834e-07 0)
(0.000889498 5.20189e-05 0)
(3.45527e-05 -2.45767e-05 0)
(0.000815195 4.89978e-05 -4.46678e-21)
(0.000782158 -2.81536e-05 0)
(0.00426088 0.00740763 8.07211e-20)
(0.00436294 0.00748811 1.43373e-19)
(0.000842645 -1.82626e-05 0)
(0.00079915 -3.33311e-05 8.11831e-19)
(0.000151391 0.000114461 1.49175e-19)
(0.00086359 6.66622e-05 8.08109e-19)
(0.000126335 9.18538e-05 2.34339e-20)
(0.00079309 -1.98016e-05 6.24047e-19)
(3.02488e-05 7.72551e-06 0)
(2.18585e-05 -1.11599e-05 -4.48362e-20)
(0.000907974 4.71939e-05 -4.8641e-19)
(2.40905e-05 -2.77903e-05 -6.69628e-19)
(0.000770623 0.000127086 -4.2312e-20)
(0.000169279 0.000152176 -1.88058e-19)
(0.000813742 3.20499e-05 0)
(0.00468253 0.00815359 9.01003e-22)
(0.000194456 0.000791832 3.33393e-19)
(9.63647e-05 -6.82442e-05 -9.14291e-19)
(4.89819e-05 -3.45266e-05 -1.16848e-18)
(0.000588844 1.30347e-05 1.89651e-20)
(0.000585779 0.000403576 0)
(0.000425762 0.000445724 -2.56277e-19)
(6.43491e-05 -6.43774e-05 1.18343e-18)
(0.000550512 -1.476e-06 7.67871e-20)
(3.63217e-05 9.22667e-07 4.06987e-19)
(0.000725736 -4.14459e-05 1.17126e-18)
(0.000812912 3.24274e-05 -6.03823e-19)
(4.76269e-05 -5.36575e-05 1.70903e-18)
(0.000841098 -4.30104e-05 -6.27028e-24)
(0.000564927 6.13539e-06 -3.75102e-20)
(0.000878123 7.21985e-05 0)
(0.000846602 5.19853e-05 0)
(0.00591554 0.00724353 2.5997e-19)
(1.22881e-05 -3.01143e-06 -1.19565e-19)
(9.27976e-05 -0.000116649 7.72852e-19)
(0.000739188 0.000114214 -6.96238e-19)
(1.48626e-05 2.72144e-07 2.01497e-19)
(0.000654105 -3.59699e-05 -7.23592e-19)
(0.000756499 3.54071e-05 1.55759e-18)
(0.000716423 0.000157221 -3.55343e-19)
(0.00080732 -1.15638e-05 3.60795e-19)
(6.19711e-05 -3.70251e-05 1.11569e-18)
(0.000801683 6.48967e-06 -3.22598e-19)
(0.000875156 3.5774e-05 0)
(0.000551533 0.000301426 4.20915e-20)
(0.000868137 4.93676e-05 -9.47452e-19)
(1.30597e-05 2.91622e-06 9.11318e-19)
(0.000861928 4.0973e-05 9.66003e-19)
(0.000863657 2.58057e-05 -9.6439e-19)
(0.000766537 1.00575e-06 -5.69002e-19)
(0.000550252 -8.40605e-05 -5.2549e-19)
(0.00432999 0.0074543 2.47084e-19)
(0.00422281 0.00752806 -2.53663e-19)
(0.00422044 0.00758586 2.67011e-19)
(0.00425648 0.00741142 1.98022e-19)
(0.000845141 -3.79719e-05 1.4423e-19)
(0.00447699 0.00751487 0)
(0.00440454 0.00751884 -3.86886e-19)
(2.11415e-05 -1.43668e-07 -9.97979e-19)
(0.0041701 0.00746849 -6.33795e-20)
(0.00414559 0.00743177 -2.21566e-19)
(0.00602919 0.0106049 0)
(0.00654024 0.0111868 3.71572e-20)
(0.00600911 0.0105746 0)
(0.00655594 0.0112105 1.3097e-19)
(0.00599652 0.0105986 2.69725e-19)
(0.00659264 0.0112274 1.24717e-20)
(0.0059354 0.0106113 -7.7692e-19)
(0.00662291 0.0111463 8.16293e-21)
(0.00390341 0.00919739 -1.90828e-19)
(0.0041863 0.00748745 3.90022e-21)
(0.00423731 0.00755139 7.9377e-20)
(0.00415009 0.00743409 4.12135e-20)
(0.000895597 0.00019655 4.46612e-20)
(6.75217e-06 9.37727e-07 0)
(0.000727227 -0.000101426 0)
(0.000657279 5.73759e-05 0)
(0.00244571 0.00111838 4.23268e-21)
(0.000758726 -3.04121e-05 1.72529e-19)
(3.50611e-05 4.25972e-06 4.53941e-20)
(5.41026e-06 -2.13694e-05 1.65254e-18)
(0.000862549 4.6203e-06 0)
(2.41654e-05 1.04929e-05 -1.91679e-19)
(0.000139082 0.000215656 0)
(1.1034e-05 -8.01739e-07 0)
(8.55072e-06 -8.93193e-07 0)
(0.000837667 0.000148975 1.13741e-20)
(0.000811051 -1.80952e-05 1.79548e-19)
(3.84611e-05 0.000256643 -1.0443e-23)
(0.000156293 0.000266576 -1.84155e-18)
(0.000612472 0.000325958 -8.56806e-20)
(0.000903165 0.000113906 6.02054e-19)
(0.000598234 -0.000151978 6.74625e-19)
(0.000358198 0.00111566 0)
(0.000482304 0.000575375 2.71478e-18)
(8.81587e-05 0.000137887 -1.80275e-18)
(1.45211e-05 -2.60514e-07 0)
(0.000822725 -6.3965e-05 3.64088e-20)
(1.37493e-05 3.11977e-05 1.64409e-18)
(0.000894141 3.59087e-05 2.71058e-19)
(-3.19004e-05 7.882e-05 3.81177e-18)
(0.000925976 4.19037e-05 -2.68928e-19)
(0.00133423 0.000155105 7.47219e-19)
(2.85653e-05 -9.47422e-06 8.25498e-20)
(3.03147e-05 2.19759e-06 -8.58902e-19)
(5.0752e-05 0.000134217 0)
(0.00092029 8.94878e-05 5.98257e-19)
(0.000499421 0.000366568 2.37095e-19)
(0.00061311 1.7247e-05 -3.88946e-20)
(0.000788521 5.54562e-06 2.57302e-19)
(0.000728944 -0.000138527 0)
(0.00632095 0.0108953 -1.68104e-19)
(0.00637871 0.010973 4.05943e-19)
(0.00615996 0.01073 -6.18592e-19)
(0.00650124 0.0111321 -8.10055e-20)
(3.15742e-05 0.000111849 8.00355e-19)
(0.000930323 6.17864e-05 1.44396e-22)
(0.0064113 0.0110055 -3.86565e-19)
(0.00628192 0.0108449 5.48605e-19)
(0.00608007 0.0106717 -4.16913e-19)
(0.00652176 0.0111646 -6.81633e-20)
(7.87375e-05 0.00049005 -2.01784e-20)
(4.63451e-05 -0.00019099 -7.92674e-19)
(0.00063828 -1.96882e-05 -7.66625e-19)
(0.000731798 0.000219454 0)
(0.000800306 1.86701e-07 0)
(0.000189664 0.0003854 3.36236e-19)
(0.000603538 0.000510821 -5.41759e-19)
(5.36837e-06 -9.46146e-07 1.78351e-19)
(0.000200116 0.000466556 -7.38262e-19)
(0.00102323 0.000980054 -1.12681e-19)
(0.000754699 0.000166474 0)
(0.000796207 0.000184914 1.30988e-19)
(0.00634926 0.00588343 1.13206e-18)
(0.000735862 0.00113123 8.2654e-20)
(3.51894e-05 3.40948e-05 -7.4451e-20)
(0.000807865 1.09405e-05 0)
(0.000870369 2.25531e-05 -3.56822e-20)
(2.89023e-05 2.03269e-06 -1.96688e-19)
(2.52313e-05 3.36153e-06 1.92956e-19)
(0.000834834 1.23789e-05 5.37073e-19)
(0.000985957 0.000114124 6.58132e-19)
(0.000534933 4.65269e-05 0)
(0.000221413 -0.000267515 -3.98176e-19)
(0.000920859 0.000142996 3.89488e-19)
(2.38127e-06 -4.59449e-05 2.0294e-19)
(0.0014543 0.000442769 -2.58055e-18)
(0.000559838 -1.34871e-05 0)
(0.000801088 0.000142048 3.75375e-19)
(9.62817e-05 0.000386418 0)
(0.00118878 0.00816147 4.62078e-19)
(0.000497681 0.000497253 -1.22432e-18)
(0.000540609 0.00101793 -1.83723e-19)
(0.000888759 1.36029e-05 -1.46021e-19)
(1.06419e-05 2.20173e-05 0)
(0.000962392 7.83268e-05 6.1146e-19)
(0.00410617 0.00739505 8.14539e-20)
(0.00417093 0.00747295 4.73169e-20)
(0.00450079 0.00751759 4.54184e-19)
(0.00444602 0.00754318 -3.29501e-19)
(0.00647515 0.0111091 8.10827e-20)
(0.00391484 0.00714603 -9.49595e-22)
(0.00550771 0.00780041 -5.6487e-19)
(0.00409787 0.00737158 5.21949e-21)
(0.00518898 0.00786016 5.11804e-19)
(0.00407965 0.00733995 -4.87452e-20)
(0.00495431 0.00771971 0)
(0.00408489 0.00736423 -8.56922e-20)
(0.00474316 0.00759056 4.92636e-19)
(0.00409813 0.00737582 8.75439e-20)
(0.00457588 0.00753019 0)
(0.00428442 0.00742186 1.39782e-19)
(0.00423865 0.00759744 5.80815e-19)
(0.00446845 0.0075287 -5.55639e-19)
(0.00438871 0.00750635 3.71467e-19)
(0.00422738 0.00752398 2.87881e-19)
(0.00643048 0.0110423 -4.97799e-21)
(0.00411761 0.00740115 3.11695e-20)
(0.00645863 0.0110722 0)
(2.03364e-05 4.43087e-06 -1.89817e-19)
(0.00200162 0.00654687 2.28194e-19)
(0.000838194 -6.02417e-05 1.09659e-19)
(0.000852361 1.61201e-06 0)
(7.31595e-07 4.76463e-07 -3.99019e-19)
(-3.3215e-05 -8.06753e-05 6.91001e-19)
(2.31373e-05 5.19324e-05 2.08856e-18)
(0.000838561 0.000186954 -9.00462e-20)
(0.000801592 8.29579e-06 7.06217e-19)
(1.66501e-07 5.4115e-08 3.09914e-19)
(1.32802e-05 -2.803e-05 -1.84518e-18)
(0.000763652 2.66325e-05 1.63113e-19)
(0.000873165 0.000125532 -3.07907e-20)
(0.000801043 -7.09627e-06 1.48096e-19)
(0.000433771 0.000678951 0)
(6.44191e-06 -0.000132961 1.15111e-18)
(0.00087484 -5.419e-08 1.52491e-19)
(1.7914e-05 2.10119e-05 0)
(0.000119868 0.000553568 -6.31161e-19)
(0.000614159 0.000584548 1.3177e-18)
(0.000333242 0.000757605 0)
(0.00080214 -1.44731e-05 0)
(0.000801807 3.08357e-06 1.17685e-18)
(1.49759e-05 4.45468e-05 -3.5142e-18)
(1.39378e-05 5.59292e-06 3.73537e-19)
(0.000116521 0.000136919 0)
(3.4408e-05 -3.83731e-05 0)
(5.88167e-05 0.000106249 2.00956e-19)
(0.000943125 0.00019053 3.50343e-19)
(0.000801098 1.47913e-05 -1.39482e-18)
(2.06437e-05 2.95339e-05 0)
(0.000412921 3.03088e-06 -6.04559e-20)
(0.00079978 3.56076e-05 -1.56314e-19)
(0.000850307 4.75656e-05 1.06514e-18)
(0.000253346 0.000542332 6.32121e-19)
(0.000884498 0.000157875 0)
(1.32235e-05 -1.94352e-05 5.38483e-19)
(1.37873e-06 -2.30069e-06 -3.19891e-19)
(0.000944469 3.46928e-05 0)
(0.00104798 0.00227047 0)
(0.000905226 2.5681e-06 0)
(0.00100767 0.000208911 4.27065e-19)
(0.000818729 -3.72487e-05 -2.84208e-19)
(0.000942716 0.000112954 -6.84597e-19)
(0.000801197 3.64448e-06 0)
(4.01301e-05 6.31589e-05 -1.71529e-19)
(0.000174743 0.000322587 1.08094e-18)
(0.000800927 1.35475e-05 -2.48174e-23)
(0.00110677 0.000209256 -6.68577e-19)
(0.00108832 0.000129236 0)
(1.85468e-06 3.8501e-06 2.50971e-19)
(1.41811e-05 -1.23741e-05 -1.9427e-19)
(0.000552781 4.7481e-05 6.94861e-21)
(-7.16706e-06 -6.01239e-05 0)
(0.001076 0.00025706 9.49725e-19)
(0.00502873 0.00974819 -2.82944e-19)
(0.00312152 0.00961674 1.27262e-18)
(1.65351e-05 -9.23601e-05 -1.91276e-19)
(3.68121e-05 -7.03984e-05 1.85899e-18)
(0.00119119 0.000258094 1.67305e-19)
(0.00133148 0.00107584 2.34049e-19)
(0.000810574 3.11373e-06 -7.36491e-19)
(0.000199113 0.000949085 -2.38208e-19)
(0.000819443 0.000946369 -2.18547e-19)
(0.000800349 -2.0342e-06 0)
(8.17038e-05 0.000610211 0)
(9.43813e-05 0.000276782 -3.58747e-23)
(0.000719861 -4.76643e-05 -1.6734e-23)
(0.000827083 6.95374e-05 1.52567e-19)
(0.00263224 0.00206699 -1.23127e-18)
(0.00176064 0.009238 -1.1721e-19)
(0.000834299 7.08258e-05 4.92207e-19)
(0.00631907 0.00405306 -1.76213e-19)
(0.00672085 0.0115572 -1.36607e-20)
(0.00473408 0.00784379 4.9354e-21)
(0.000805637 1.35785e-05 -2.16584e-18)
(0.000843239 5.71487e-07 7.67778e-24)
(5.3386e-06 -5.35791e-06 -3.47938e-19)
(4.50747e-05 8.32556e-05 -3.49204e-19)
(6.19555e-05 0.000260556 8.75111e-19)
(8.80885e-06 1.36562e-05 4.90298e-19)
(8.97554e-05 0.000222829 3.69696e-19)
(0.000819554 1.51117e-05 0)
(0.00534818 0.00949237 1.94935e-20)
(0.00154715 0.000638687 -2.61171e-20)
(0.000819268 4.02943e-05 3.60091e-19)
(1.57654e-05 -7.23237e-05 0)
(0.00184841 0.000749977 5.45931e-19)
(7.27478e-06 5.83954e-06 -2.70095e-19)
(3.0669e-05 2.50714e-05 9.71608e-20)
(0.00133558 0.00139846 6.36581e-19)
(0.000739376 4.97732e-05 1.83061e-19)
(1.88695e-06 -7.67411e-07 -1.70163e-19)
(0.0020648 0.00156319 -1.05571e-18)
(0.000126751 0.000171504 -8.1861e-19)
(0.00392023 0.00848831 -1.09087e-18)
(3.25228e-06 9.7396e-07 8.81236e-20)
(9.65902e-05 -4.42208e-05 -1.25826e-18)
(3.53287e-05 -5.36569e-05 4.0555e-20)
(0.00153158 0.000988345 0)
(0.00104329 0.000141029 -4.0088e-22)
(0.000454636 0.000846254 -4.01995e-20)
(0.000803417 2.76287e-05 -2.34023e-19)
(8.69129e-05 0.00017787 7.35928e-19)
(1.95706e-05 -5.33504e-05 4.03905e-19)
(1.62124e-05 1.30578e-05 -9.46896e-20)
(2.85261e-05 8.50517e-05 -3.20223e-19)
(0.000215097 -0.000171362 -5.45589e-19)
(0.00325088 0.00346723 2.90315e-21)
)
;

boundaryField
{
    back
    {
        type            empty;
    }
    ingreso
    {
        type            fixedValue;
        value           uniform (0.0008 0 0);
    }
    salida
    {
        type            zeroGradient;
    }
    front
    {
        type            empty;
    }
    defaultFaces
    {
        type            noSlip;
    }
}


// ************************************************************************* //
