/*--------------------------------*- C++ -*----------------------------------*\
  =========                 |
  \\      /  F ield         | OpenFOAM: The Open Source CFD Toolbox
   \\    /   O peration     | Website:  https://openfoam.org
    \\  /    A nd           | Version:  7
     \\/     M anipulation  |
\*---------------------------------------------------------------------------*/
FoamFile
{
    version     2.0;
    format      ascii;
    class       volScalarField;
    location    "49.5";
    object      p;
}
// * * * * * * * * * * * * * * * * * * * * * * * * * * * * * * * * * * * * * //

dimensions      [0 2 -2 0 0 0 0];

internalField   nonuniform List<scalar> 
591
(
0.00012392
0.000123939
0.000123947
0.000123902
0.000123903
0.000123975
0.000123973
0.000123935
0.000116997
0.00012395
0.000124122
0.000122857
0.000123944
0.000119745
0.000123935
0.00012399
0.0001239
0.000123977
0.000121968
0.000123315
0.000123913
-3.52529e-06
0.00012412
0.000123916
0.000124079
0.000123936
0.000124026
0.00012404
0.000123949
0.000123962
0.000124098
0.000124075
0.000124093
0.000124092
0.000124095
0.000123422
0.00012409
0.000123918
0.000124115
0.000124035
0.000124008
0.000124087
0.000123945
0.000123965
0.000124084
0.000124102
0.000119269
0.000124106
0.000123951
0.000124067
0.000124046
0.00012408
2.39365e-05
3.05809e-05
4.7841e-05
0.000123948
0.00012411
0.000124094
0.000124104
0.000123922
0.000124007
0.00012394
0.00012394
0.000123991
0.000122584
0.00012394
0.000123944
0.000124101
0.000120751
0.000123955
0.000123949
0.000124108
0.000124071
0.000124088
0.000124093
0.00012407
0.000123916
0.000124105
0.000123919
0.000123848
0.000123698
0.000124109
0.00012407
0.000124044
0.000124117
0.00012393
0.000124022
0.000124099
0.000124062
0.000123815
0.000124075
0.000124015
0.000124035
0.000123924
0.000124115
0.000124069
0.000123627
0.000123525
0.000123672
0.00012412
0.00012403
0.000123942
0.000124124
0.000123903
0.000124123
0.000123943
0.000123938
0.000124074
0.000124114
0.000124118
0.000124004
0.000124092
0.000123957
0.000124098
0.000124118
0.000124095
0.000124047
0.000124048
0.000123606
0.000124014
0.000123942
0.000123943
0.000124006
0.000123926
0.000124088
0.000120222
0.000124122
0.000124097
0.000123696
0.000124094
0.000123933
0.00012362
0.000124057
0.000124054
0.000124097
0.000123949
0.00012262
0.000124122
0.000123936
0.000123605
0.000123671
0.000124024
0.000124101
0.000124116
0.00012411
7.61493e-06
3.67734e-06
2.0709e-06
3.81499e-05
3.66921e-05
5.65928e-06
3.82982e-05
1.57404e-05
3.72763e-05
1.78059e-05
0.000123941
0.000123931
0.000124109
0.000124106
0.000124112
0.000124111
0.000124104
0.000124101
0.000124107
0.000124107
0.000124069
0.000124113
0.000124109
0.000124114
0.000124047
0.000123412
0.000124116
0.000122151
0.000124091
0.000124097
0.000124041
0.00012395
0.000124097
0.000124108
0.000124104
0.000123517
0.0001225
0.000123071
0.000123473
0.0001241
0.000124106
0.000124034
0.000123915
0.000124099
0.000122986
0.000123332
0.000123916
0.000124096
0.00012379
0.00012409
0.0001241
0.000124073
0.000123761
0.000123905
0.000124098
0.000124106
0.000124102
0.000123898
0.000124085
0.000123894
0.000124116
0.000123936
0.000123934
0.000124112
0.000123726
0.000123906
0.000123947
0.000123574
0.000124062
0.00012372
0.000124007
0.000124013
0.000124089
0.000123489
0.000123999
0.000123896
0.000123901
0.000124071
0.000123828
0.000123987
0.000123897
0.000123806
0.000123894
0.000124117
0.000123871
0.000124112
0.000123955
0.000124087
0.00012394
0.000123939
0.000124119
0.000123839
0.000124108
0.00012383
0.000123876
0.000123942
0.00012392
0.000123955
0.000123941
0.000123707
0.000123914
0.000123863
0.000124079
0.000123934
0.000123776
0.000124065
0.000123332
0.000123877
0.00012323
0.000123106
0.000123926
0.000123892
0.000123927
0.000123924
0.000123885
0.000124117
0.000123971
0.000124055
0.000123975
0.000123974
0.000123987
0.000124067
0.00012372
0.000124112
0.000123758
0.000123649
0.000123959
0.000124087
0.000123669
0.000124111
0.000124014
0.000124052
0.000124069
0.000123952
0.000123915
0.000123736
0.000123887
0.000123908
0.000123963
0.000124012
0.000124083
0.000124097
0.000124105
0.000123869
0.00012397
0.000124091
0.000124099
0.000124095
0.000123892
0.000124107
0.000123978
0.000124083
0.000123858
0.000124107
0.000123847
0.000124085
0.000123981
0.000123916
1.16407e-05
2.19082e-05
0.000123881
0.000123944
0.000124114
0.000123876
0.000124115
0.000123956
0.000124107
0.000124085
0.000123832
0.00012408
0.000123912
0.00012411
0.000123948
-2.09331e-07
0.000123796
0.000124089
0.000124085
0.000123793
0.000123927
0.000123964
0.00012408
0.000123854
0.000124101
0.000123991
0.000123941
0.000124079
0.0001239
0.000123826
0.000123855
0.000123953
4.74527e-05
0.000124096
0.000124079
0.000123938
0.000124102
0.000124018
0.000123962
0.00012394
0.000123934
0.000124089
0.000123962
0.000123869
0.000123978
0.000123871
0.000124101
0.000123879
0.000123931
0.000123969
0.000124052
1.98696e-05
2.73263e-05
3.4288e-05
9.63701e-06
0.000123918
3.30463e-05
2.59941e-05
0.000124098
1.90713e-05
1.70282e-05
3.81794e-05
7.57028e-06
3.99317e-05
5.59924e-06
4.0826e-05
3.68682e-06
4.28095e-05
1.87596e-06
3.63867e-05
2.31927e-05
2.94422e-05
1.49914e-05
0.000123793
0.000124109
0.000123986
0.000123991
0.000120914
0.000124041
0.000124104
0.000124075
0.000123889
0.000124109
0.000124106
0.000124091
0.000124088
0.000123856
0.000123935
0.000124089
0.000124094
0.000123934
0.000123813
0.000123853
0.000123434
0.000123887
0.00012412
0.000124095
0.000123947
0.000124116
0.000123793
0.00012396
0.000123751
0.000122883
0.000124089
0.0001241
0.000124119
0.000123802
0.000123974
0.000123751
0.000123957
0.000123945
2.60356e-05
2.18711e-05
3.30284e-05
1.16188e-05
0.000124124
0.000123798
1.98155e-05
2.82476e-05
3.55953e-05
9.58497e-06
0.000123936
0.000124043
0.000123894
0.000123904
0.00012394
0.000124053
0.000123847
0.000124085
0.000124018
0.000123127
0.000123908
0.000123876
5.93355e-05
0.000123251
0.000124114
0.000123926
0.000123828
0.000124103
0.000124106
0.000123912
0.000123708
0.00012394
0.000124014
0.000123789
0.000124061
0.000122942
0.000123881
0.000123885
0.000124062
0.000100864
0.000123911
0.000123514
0.000123861
0.000124115
0.000123759
1.08948e-05
2.11104e-05
3.53598e-05
2.81816e-05
1.36644e-05
5.53746e-08
4.20633e-05
2.68933e-06
4.01473e-05
4.75938e-06
3.94084e-05
6.8116e-06
3.86166e-05
8.85505e-06
3.72828e-05
1.36731e-05
3.17196e-05
3.05748e-05
2.39324e-05
2.52714e-05
1.77641e-05
1.29375e-05
1.57092e-05
0.000124108
0.000102442
0.000123918
0.000123856
0.000124112
0.000124005
0.000124117
0.000123837
0.000123974
0.000124081
0.000124076
0.000124091
0.000123842
0.000123945
0.000123828
0.000124045
0.000123884
0.000124112
0.000123974
0.000123806
0.000123809
0.000123956
0.000123949
0.000124119
0.00012411
0.000124116
0.00012408
0.00012412
0.000123754
0.000123941
0.000124114
0.000123885
0.000124015
0.000123942
0.000123969
0.00012382
0.00012408
0.000124078
0.000123392
0.000121399
0.000123121
0.000123666
0.000123941
0.000123769
0.000123954
0.000124118
0.000124077
0.000123946
0.000123554
0.000123537
0.000124113
0.000124082
0.000123963
0.000124049
0.000123591
5.83237e-05
4.01008e-05
0.000124054
0.000124071
0.000123433
0.000122777
0.000123924
0.000123657
0.000123402
0.00012394
0.000123828
0.000124098
0.000123969
0.000123997
0.00011902
5.44601e-05
0.000123966
8.12293e-05
1.86222e-06
-3.80164e-07
0.000123935
0.000123906
0.000124081
0.000124119
0.000124107
0.000124113
0.000124109
0.000123921
-2.30704e-06
0.00012286
0.000123957
0.000124061
0.000122027
0.000124112
0.000124112
0.000122321
0.000124035
0.000124083
0.000121713
0.000124112
7.63639e-05
0.00012411
0.00012368
0.000124075
0.000122404
0.000123644
0.000123693
0.000123968
0.000124115
0.000124068
0.000124111
0.000124122
0.000123948
0.000116202
)
;

boundaryField
{
    back
    {
        type            empty;
    }
    ingreso
    {
        type            zeroGradient;
    }
    salida
    {
        type            fixedValue;
        value           uniform 0;
    }
    front
    {
        type            empty;
    }
    defaultFaces
    {
        type            zeroGradient;
    }
}


// ************************************************************************* //
