/*--------------------------------*- C++ -*----------------------------------*\
  =========                 |
  \\      /  F ield         | OpenFOAM: The Open Source CFD Toolbox
   \\    /   O peration     | Website:  https://openfoam.org
    \\  /    A nd           | Version:  7
     \\/     M anipulation  |
\*---------------------------------------------------------------------------*/
FoamFile
{
    version     2.0;
    format      ascii;
    class       surfaceScalarField;
    location    "49.5";
    object      phi;
}
// * * * * * * * * * * * * * * * * * * * * * * * * * * * * * * * * * * * * * //

dimensions      [0 3 -1 0 0 0 0];

internalField   nonuniform List<scalar> 
1111
(
6.40366e-09
1.32465e-08
-1.57663e-08
-3.88384e-09
6.50077e-09
-1.17746e-08
1.16775e-08
-1.47156e-08
4.99219e-09
9.38394e-09
3.39496e-10
4.17314e-10
-4.91773e-10
-1.41757e-08
1.42502e-08
-1.40778e-08
1.38327e-08
6.62436e-10
-1.62077e-09
1.48736e-08
2.17572e-09
-3.89194e-09
9.75145e-09
-1.07305e-08
4.87099e-09
-6.68076e-09
-1.26152e-08
1.25776e-08
6.71839e-09
-5.05201e-08
-2.58819e-08
7.64021e-08
-8.10249e-09
7.56646e-09
7.03679e-09
3.58799e-09
3.44987e-10
-3.6658e-09
-2.67173e-10
1.56019e-08
-1.58627e-08
-2.29932e-08
2.32541e-08
-9.62567e-09
-7.95004e-09
8.78854e-09
8.78717e-09
-3.52041e-08
1.75695e-08
-3.23363e-08
4.9971e-08
9.53641e-09
-1.93726e-09
-1.42799e-08
-2.00306e-09
2.62909e-09
-3.76435e-09
3.13832e-09
-3.73124e-09
1.32684e-08
1.9434e-09
-1.14806e-08
8.8545e-09
-2.33682e-09
-1.50334e-08
8.51566e-09
3.77505e-08
-3.06047e-08
-7.14585e-09
-1.93234e-08
7.7153e-11
1.74653e-08
1.78099e-09
-7.19724e-10
4.02563e-09
-1.79026e-08
1.45967e-08
-6.12169e-08
-3.96315e-09
6.518e-08
1.65427e-10
-1.31522e-09
-3.70717e-10
1.52051e-09
-1.30036e-09
-1.34972e-08
-1.87116e-10
-3.27278e-10
2.92138e-10
2.22256e-10
-1.00719e-08
-8.15718e-09
1.25149e-08
5.71414e-09
7.39263e-10
-2.15544e-09
-8.46989e-09
9.88607e-09
7.98171e-09
9.6177e-10
-8.86697e-09
-7.65112e-11
-2.83772e-09
-7.81814e-09
1.087e-08
-2.14099e-10
1.13623e-08
-5.48367e-10
-1.95947e-09
-1.00985e-09
9.87233e-10
8.24698e-11
-5.98579e-11
-2.99066e-10
8.82771e-10
4.5947e-10
-1.04317e-09
-6.09466e-10
-4.21445e-11
6.49318e-10
2.29279e-12
1.75184e-11
-1.02564e-09
9.76663e-11
9.10455e-10
-5.28506e-11
-9.39476e-10
7.7451e-10
-1.83962e-08
-1.70177e-09
-5.19314e-10
5.68195e-11
-1.46972e-10
1.3412e-08
-1.32842e-08
3.89783e-09
-4.32629e-10
6.44157e-10
4.1044e-10
-6.21969e-10
-4.48386e-10
-2.34719e-09
1.8012e-09
9.94375e-10
-2.14402e-09
9.60651e-09
-1.13544e-08
-3.90696e-10
-2.01121e-10
7.25023e-11
-8.80041e-09
1.01256e-08
-9.4277e-09
1.19649e-08
-1.70248e-08
5.00246e-09
5.74138e-11
9.07305e-11
-2.11636e-10
-2.69791e-10
2.63964e-10
9.01878e-10
-1.78609e-10
-5.9672e-08
7.43247e-08
-1.46527e-08
1.14861e-09
-3.60559e-10
-1.32205e-09
5.34001e-10
1.10106e-09
1.03092e-08
-1.37285e-08
2.31823e-09
-9.19052e-10
7.03206e-09
-8.49814e-09
2.38513e-09
-6.48402e-09
5.78144e-09
5.49432e-09
-4.79174e-09
-7.14028e-09
-2.20296e-09
2.10779e-09
7.23545e-09
-1.85473e-10
-9.092e-08
9.13063e-08
-2.00789e-10
-2.57397e-10
-8.9762e-08
9.01695e-08
-1.50136e-10
8.3089e-08
-1.50157e-09
1.16946e-10
-8.17043e-08
-3.16275e-09
-1.90528e-10
8.05607e-10
9.19195e-10
-5.76197e-10
4.03052e-09
-1.65648e-09
3.29382e-09
-5.66786e-09
-1.10527e-09
1.00868e-09
-1.49803e-08
6.61414e-09
9.30685e-09
9.86327e-10
-1.00031e-08
-2.90065e-10
-6.29095e-09
1.2946e-08
1.42691e-09
-8.08193e-09
1.43046e-08
-4.12429e-09
3.3235e-09
-1.35038e-08
1.54233e-08
1.739e-09
-1.73346e-09
-5.62559e-10
-1.9902e-08
-7.15502e-09
2.76195e-08
1.38164e-08
-8.31222e-09
-2.18387e-09
7.67786e-09
-1.17849e-08
-1.05909e-10
2.30128e-10
-1.44627e-09
-3.65315e-08
-2.31405e-08
8.04189e-09
7.09351e-11
3.8521e-09
-6.97963e-09
1.07731e-08
6.33218e-09
-6.88312e-10
3.90738e-10
5.55429e-10
-2.57856e-10
5.91888e-09
-4.64147e-09
3.56278e-09
-4.84019e-09
-6.19716e-10
-7.10413e-10
3.0449e-10
8.00191e-10
-7.4467e-10
-1.39721e-10
-1.11636e-09
9.57015e-10
-1.76659e-08
2.49874e-09
1.47119e-09
1.3696e-08
2.92262e-10
-8.09866e-10
-1.70707e-10
-3.89551e-09
-1.48222e-08
1.05185e-09
5.67079e-09
1.18061e-08
-5.23824e-09
-1.22387e-08
1.64563e-08
5.71771e-10
-1.59236e-08
-1.10448e-09
-7.73405e-10
5.44196e-10
6.19946e-10
-7.93816e-10
4.22271e-10
3.71544e-10
-7.15067e-09
-3.75967e-09
4.42632e-09
-3.52077e-10
5.14833e-10
-1.62756e-10
1.3204e-09
-1.52878e-08
-8.1549e-10
9.06316e-09
-1.03917e-08
-1.12871e-09
-9.33537e-10
1.26241e-08
4.39384e-09
-4.13761e-09
-1.28803e-08
2.35154e-10
6.98733e-09
-7.69571e-09
6.48982e-09
-1.89415e-09
-8.55455e-09
7.86126e-09
2.58744e-09
-1.78048e-09
6.03734e-10
-1.36455e-08
-2.11737e-10
-1.40339e-10
-3.3395e-10
1.13232e-09
-7.93864e-09
7.46213e-10
1.73092e-08
-1.59909e-09
-1.36119e-08
1.48665e-08
-1.25462e-09
1.20184e-08
1.40849e-08
-1.56114e-08
-1.04919e-08
-7.60639e-10
1.30653e-09
-5.45895e-10
1.12175e-09
-1.39121e-09
2.69468e-10
1.8396e-09
-2.50893e-09
6.69326e-10
1.77334e-09
-1.47196e-09
-3.01379e-10
-1.13487e-08
4.43382e-10
1.09053e-08
2.4834e-09
-7.10056e-10
8.89073e-09
-1.51989e-08
6.74596e-09
-7.99896e-09
6.70821e-11
3.93027e-09
-4.09365e-10
-2.82838e-09
2.89546e-09
-7.19992e-09
8.53013e-09
-1.33021e-09
-8.19682e-10
4.1269e-09
7.23308e-10
1.72086e-08
-1.45229e-08
-1.58467e-09
-5.55517e-09
5.20104e-09
-1.30236e-09
-2.45807e-10
6.46066e-09
-6.48597e-09
2.5309e-11
7.03982e-09
4.37337e-09
1.88208e-10
-1.59004e-08
1.04405e-08
1.74783e-08
5.6928e-09
8.33435e-09
8.25637e-09
-6.81206e-09
9.35452e-10
-1.22841e-08
1.12487e-09
3.5202e-10
-1.27696e-08
3.33583e-09
-4.40362e-10
1.28657e-08
-1.22939e-08
-1.46043e-10
-1.03552e-09
-1.37447e-08
7.21987e-09
8.92263e-10
-4.16671e-11
-8.92421e-09
5.18115e-09
-3.11672e-08
-1.25359e-08
-2.54142e-09
1.33256e-09
1.38506e-08
1.09506e-08
-1.06408e-08
-1.41603e-08
1.59131e-08
-3.12446e-09
-1.27886e-08
1.71407e-09
3.872e-09
-1.39786e-09
-9.69836e-10
-1.00565e-09
1.3276e-09
6.47885e-10
-2.91307e-10
4.19224e-10
4.27512e-10
6.21346e-08
-6.21599e-08
2.53028e-11
6.20534e-08
-6.23574e-08
3.04052e-10
8.36521e-10
6.475e-08
-6.55791e-08
8.29116e-10
6.41406e-08
6.09365e-10
-2.22827e-10
-6.65284e-08
9.49344e-10
-6.20413e-08
6.19075e-08
1.33819e-10
1.32228e-09
-6.78507e-08
-6.22018e-08
1.60451e-10
1.21759e-08
-1.06196e-09
1.67498e-09
-3.72452e-09
3.1115e-09
4.20734e-10
-1.28244e-09
1.11821e-09
-7.87621e-10
1.48214e-09
-1.75354e-09
1.05902e-09
1.53606e-09
-1.69775e-09
3.91815e-10
-9.62114e-11
-3.34003e-09
3.03923e-09
-2.29463e-09
2.59543e-09
-8.02386e-10
-2.8575e-09
2.59793e-09
-3.82291e-09
-5.61029e-09
6.4786e-10
-7.34317e-10
1.41888e-09
1.18148e-09
-6.59931e-09
8.0189e-09
2.95379e-09
2.02339e-08
-4.32074e-09
-8.11792e-10
3.02049e-10
1.1576e-09
-1.01077e-08
-2.64238e-08
5.46426e-09
-4.4613e-09
-3.11e-09
2.10704e-09
1.33351e-10
1.47139e-11
5.01253e-10
-2.7854e-09
3.49599e-09
8.66909e-09
8.91875e-10
-5.23762e-10
2.21384e-09
-2.49247e-09
2.20695e-09
1.47502e-08
1.31852e-08
-2.69723e-08
3.24665e-08
6.18994e-09
-2.28679e-08
-1.02944e-08
1.81186e-08
-1.77101e-08
1.05421e-08
-2.43835e-10
-4.62988e-11
-1.40761e-09
-1.88549e-09
-2.65556e-09
3.90888e-09
1.47498e-08
-6.04155e-10
-1.35419e-08
-7.86642e-11
-2.77396e-09
-4.8814e-12
1.5395e-08
1.74737e-08
1.36225e-08
6.92553e-10
-1.54497e-09
-1.27701e-08
-1.83614e-09
6.01308e-09
1.22818e-08
-7.49083e-10
-1.22591e-09
-3.52391e-09
2.73103e-09
3.8321e-09
2.42772e-09
1.41904e-08
4.12716e-09
-1.39237e-08
1.75557e-08
-1.75404e-09
2.80994e-09
-3.60992e-09
1.87965e-09
-4.5951e-09
1.28798e-08
-1.2016e-08
-1.39166e-08
5.6965e-10
8.75186e-09
-1.90091e-09
1.59839e-09
1.7214e-09
-8.71594e-09
5.80125e-10
-4.40006e-09
-6.04601e-09
1.21928e-08
-1.48628e-08
1.37195e-09
1.6621e-09
-2.18474e-09
1.64734e-08
-1.59508e-08
-9.74676e-10
1.3993e-08
2.8311e-09
-4.1225e-09
-1.39075e-08
7.31353e-09
-1.70374e-08
-7.98628e-09
6.54226e-09
5.85076e-09
1.43527e-08
-9.61237e-09
3.14157e-09
9.05825e-09
9.86174e-09
3.84996e-09
-4.11808e-09
2.14534e-08
-1.88327e-08
4.69283e-09
-1.01334e-08
2.23509e-09
5.4593e-09
1.35676e-08
-8.82888e-11
1.25656e-08
-1.34519e-08
-1.73325e-09
2.3881e-09
-1.49687e-09
8.42012e-10
1.08189e-08
-6.37857e-09
7.36578e-09
-1.05374e-08
1.39034e-09
-4.75475e-09
1.12621e-08
-1.17456e-08
-7.47722e-09
9.01701e-09
9.2791e-09
1.26742e-08
9.11669e-10
-1.36742e-08
1.67323e-09
8.3585e-10
-1.09098e-08
-6.717e-09
1.01495e-08
-1.70677e-09
2.52364e-09
-8.83506e-09
4.78019e-09
-5.13106e-09
1.13155e-08
-3.49031e-09
-1.14956e-08
3.67039e-09
-4.5197e-09
1.10805e-08
2.08049e-09
1.19113e-09
-5.07646e-09
-1.74888e-08
1.03877e-08
1.21776e-08
8.53213e-10
-1.07981e-08
-9.75181e-09
1.54735e-08
1.22958e-08
2.75546e-09
-9.59194e-09
-1.32141e-08
-2.74776e-10
-1.25746e-08
2.3732e-10
-6.77016e-10
1.13096e-08
1.24127e-08
-8.14952e-09
1.62813e-08
-1.56452e-08
3.49109e-09
-4.54775e-10
1.68611e-09
1.24646e-08
-3.86519e-09
-1.25111e-08
-5.11857e-09
9.27841e-10
4.54275e-09
1.19585e-08
-7.37995e-09
7.85552e-10
-1.28781e-09
1.46776e-09
-1.9132e-09
6.087e-09
2.59086e-08
-4.48972e-10
-1.176e-08
1.2209e-08
2.82276e-08
-2.20635e-08
2.19457e-08
1.93579e-08
-1.25877e-08
-2.62467e-09
1.48637e-08
1.85258e-10
-1.20926e-08
-2.96682e-10
-6.02621e-09
-1.95167e-09
2.36316e-09
1.66901e-09
-2.22683e-11
-1.08298e-08
1.10346e-08
-1.82584e-10
2.76473e-09
-5.49816e-09
-1.06627e-08
1.03139e-08
-7.55842e-10
-1.04586e-08
-4.97982e-11
-1.07092e-08
-2.8277e-09
-1.18536e-08
2.26311e-09
7.79394e-09
5.09469e-09
8.06094e-11
-1.15708e-08
1.1468e-08
6.63092e-10
-8.52892e-09
5.25954e-09
-1.04801e-09
2.63513e-09
-2.9951e-09
-1.29758e-08
-1.31503e-08
1.2782e-08
-1.01401e-08
-1.58138e-08
1.00536e-08
9.0813e-09
8.59584e-10
2.58684e-09
-1.43469e-08
1.09901e-08
1.7099e-09
4.02532e-09
3.67404e-10
-6.07469e-10
-3.79651e-10
-4.03909e-09
2.67731e-09
-1.41218e-09
3.20592e-10
-3.7466e-10
5.40677e-11
-2.54671e-09
1.26953e-08
2.14719e-09
2.56249e-09
-7.98696e-10
-1.75183e-09
-1.79956e-10
-2.53151e-09
-6.2793e-10
1.2707e-08
9.81955e-09
-4.64789e-10
7.05303e-09
-1.19811e-09
-5.39013e-09
-9.65347e-09
-5.07988e-09
2.49625e-10
7.09669e-11
4.73777e-09
1.33791e-09
-1.68738e-08
-5.56563e-10
-9.02933e-10
-2.507e-09
9.05453e-10
2.683e-09
6.19336e-08
-8.86625e-11
-6.1845e-08
6.23523e-08
1.89688e-10
-6.2542e-08
-1.41913e-08
3.94286e-11
1.4552e-08
-4.00051e-10
2.78968e-09
-2.03284e-09
2.76522e-09
1.79125e-09
-4.38174e-09
-4.73634e-10
-6.27538e-10
5.08834e-10
-1.39151e-10
5.87153e-10
-4.2087e-10
1.91792e-08
1.12073e-09
-1.55621e-08
-2.81262e-10
-1.95974e-09
1.22008e-08
2.22359e-09
1.75073e-09
5.20152e-09
-1.9004e-09
-7.72397e-08
-2.41757e-08
-4.78034e-09
1.57337e-08
2.31512e-09
-6.39497e-10
-3.30419e-09
-1.33079e-09
6.44239e-10
-5.39363e-10
-1.1689e-08
-3.11816e-10
1.20008e-08
-1.06665e-08
-6.65467e-09
1.06042e-08
-9.30201e-09
8.8013e-09
-7.12306e-11
1.81984e-09
1.11665e-08
-1.09447e-08
-2.21798e-10
7.24432e-10
7.12323e-11
9.97252e-09
1.01231e-09
-1.09549e-09
-3.0653e-10
-1.42397e-08
-5.2247e-10
-1.34938e-08
1.2248e-08
-1.15587e-08
-6.59869e-08
6.49431e-08
1.04381e-09
4.24677e-10
-4.09963e-10
1.17086e-08
-3.91688e-10
1.70287e-11
-2.00359e-09
2.77549e-09
-3.39594e-09
-1.35216e-08
-1.66983e-09
2.57575e-09
-4.73958e-09
-1.38565e-08
1.72225e-09
5.61221e-09
9.46687e-09
-8.79421e-09
-4.21142e-10
2.94534e-11
-9.34721e-09
-1.28953e-08
1.50561e-10
-6.27075e-08
2.3697e-10
6.24705e-08
6.96013e-10
6.34446e-08
-2.26279e-10
-1.09553e-09
-1.43805e-08
1.04757e-10
-6.33776e-08
6.32728e-08
1.84336e-10
-6.29271e-08
6.27428e-08
5.04788e-10
6.18073e-08
1.52972e-10
-6.19602e-08
6.1638e-08
1.69225e-10
-8.79038e-08
8.85127e-08
3.80924e-13
9.33904e-08
-9.30981e-08
-2.67073e-10
-8.6643e-08
-4.31607e-10
9.33522e-08
-1.84571e-10
-8.49282e-08
-7.65473e-10
9.3484e-08
1.72283e-10
-5.16991e-10
1.95998e-09
9.23605e-08
-6.93523e-08
6.21514e-08
-6.23369e-08
-6.29649e-08
6.14957e-08
1.42292e-10
-2.99331e-09
2.767e-09
-1.36974e-08
7.78549e-11
1.7177e-10
2.08859e-09
9.24618e-09
-1.1583e-08
3.82672e-08
-3.44489e-08
-1.65878e-08
1.38078e-08
-7.38142e-11
-2.22103e-10
2.66369e-10
8.87873e-10
-1.71651e-10
3.89179e-10
4.63086e-09
1.0331e-09
-3.78431e-09
-3.50851e-10
4.07671e-10
-2.78349e-10
-2.44499e-09
1.28633e-08
2.27704e-09
-1.44493e-08
-2.44383e-09
-3.61493e-09
5.67416e-09
1.06374e-09
-2.58465e-09
1.41762e-08
-1.20389e-09
-3.51612e-09
4.99463e-09
-8.11518e-09
-1.90734e-08
-1.31427e-08
7.71644e-09
5.99591e-09
-3.05021e-10
-5.25213e-10
3.19339e-09
1.43998e-08
1.99746e-09
-1.52365e-09
-4.62087e-10
5.04466e-10
-2.88186e-10
1.59921e-08
-4.77439e-10
-1.58265e-08
-2.63804e-09
-1.87394e-09
2.93065e-10
-2.24572e-10
3.72003e-09
-1.7422e-08
6.05473e-10
-1.67637e-09
-2.29445e-09
-2.3977e-09
1.52865e-08
-9.0602e-08
-1.33616e-10
9.16872e-08
-1.91223e-10
-8.91775e-08
-4.7972e-10
9.31041e-08
-2.72948e-10
-9.29198e-08
-6.13605e-10
-1.77282e-09
1.6304e-08
9.19907e-08
-1.95529e-10
3.11969e-11
-2.20252e-10
1.04735e-08
2.39872e-09
-8.84678e-09
-1.19404e-08
-5.66364e-09
8.466e-09
1.39156e-09
-6.90377e-09
-6.26279e-09
9.03238e-09
-1.87619e-10
1.01605e-08
1.93293e-08
-1.77182e-08
3.03585e-09
-1.24856e-08
3.01034e-09
-6.9954e-08
3.96709e-09
-2.03423e-08
-1.29454e-08
-5.81329e-10
-5.90753e-09
-1.53541e-08
9.16896e-09
-1.52283e-08
5.48688e-10
4.63604e-10
-1.58494e-09
-1.6229e-08
1.67866e-08
8.50728e-09
-8.69781e-09
-5.35364e-09
1.5063e-08
-1.70053e-09
8.13782e-10
-1.378e-09
4.49846e-10
1.20457e-08
3.37095e-09
7.09537e-08
-1.8017e-08
8.98095e-10
-1.4738e-08
-2.88777e-10
-3.36066e-10
-1.49519e-10
6.09621e-08
-6.12351e-08
-6.33464e-08
-6.31226e-08
-6.25589e-11
-2.60685e-10
-9.25965e-08
-6.04625e-08
6.24225e-08
6.506e-08
-6.02902e-08
6.45431e-08
-6.04748e-08
6.37776e-08
-6.07419e-08
6.3346e-08
9.23204e-08
3.62919e-10
-6.44804e-09
7.5092e-08
-6.5273e-08
9.084e-11
-9.084e-11
1.46045e-09
-3.69012e-10
1.5498e-08
-9.90412e-11
9.90412e-11
4.5365e-10
1.56622e-09
1.38626e-08
1.31209e-08
-2.77736e-09
3.75672e-09
6.32815e-09
1.94598e-09
4.44026e-10
-3.13579e-10
-2.92474e-09
1.44276e-08
1.48269e-08
-4.27528e-09
1.1754e-08
2.45585e-10
1.95189e-10
2.93504e-09
-9.82826e-10
-1.71693e-09
-5.92276e-09
-1.51491e-10
-4.66129e-10
1.52608e-08
3.40367e-10
1.36113e-10
1.5641e-08
-2.58782e-08
1.73729e-08
2.59166e-09
1.43477e-09
2.34159e-09
-3.63485e-09
1.90724e-08
-1.77792e-08
-1.20897e-10
6.9267e-10
-1.44551e-09
-7.9215e-08
-7.07978e-08
1.44349e-09
-9.63677e-10
7.10201e-10
2.28407e-08
1.84342e-08
-6.46423e-09
1.25026e-10
-4.45141e-09
-2.27958e-09
2.99547e-08
1.55899e-10
1.48172e-08
7.35802e-08
8.85778e-11
5.53694e-10
-2.05617e-10
-2.70788e-10
-3.82768e-09
2.42486e-08
-1.48188e-08
1.17248e-09
-1.39752e-08
-8.09299e-11
2.02166e-08
-2.87076e-08
9.01458e-10
2.35659e-09
-5.79155e-10
)
;

boundaryField
{
    back
    {
        type            empty;
        value           nonuniform 0();
    }
    ingreso
    {
        type            calculated;
        value           nonuniform List<scalar> 
14
(
-1.54286e-08
-1.54288e-08
-1.54288e-08
-1.54288e-08
-1.54286e-08
-1.54283e-08
-1.54288e-08
-1.54288e-08
-1.54286e-08
-1.54286e-08
-1.54288e-08
-1.5428e-08
-1.5428e-08
-1.54286e-08
)
;
    }
    salida
    {
        type            calculated;
        value           nonuniform List<scalar> 2(1.01415e-07 1.14585e-07);
    }
    front
    {
        type            empty;
        value           nonuniform 0();
    }
    defaultFaces
    {
        type            calculated;
        value           uniform 0;
    }
}


// ************************************************************************* //
