/*--------------------------------*- C++ -*----------------------------------*\
  =========                 |
  \\      /  F ield         | OpenFOAM: The Open Source CFD Toolbox
   \\    /   O peration     | Website:  https://openfoam.org
    \\  /    A nd           | Version:  7
     \\/     M anipulation  |
\*---------------------------------------------------------------------------*/
FoamFile
{
    version     2.0;
    format      ascii;
    class       volScalarField;
    location    "46.5";
    object      p;
}
// * * * * * * * * * * * * * * * * * * * * * * * * * * * * * * * * * * * * * //

dimensions      [0 2 -2 0 0 0 0];

internalField   nonuniform List<scalar> 
591
(
0.000123943
0.000123961
0.000123969
0.000123925
0.000123926
0.000123998
0.000123996
0.000123957
0.000117011
0.000123971
0.000124142
0.000122877
0.000123968
0.000119759
0.000123958
0.000124013
0.000123919
0.000124
0.000121988
0.000123341
0.000123934
-3.52355e-06
0.000124141
0.000123938
0.0001241
0.000123958
0.000124045
0.00012406
0.00012397
0.000123985
0.000124119
0.000124096
0.000124115
0.000124113
0.000124116
0.000123445
0.000124111
0.00012394
0.000124136
0.000124056
0.00012403
0.000124108
0.000123967
0.000123986
0.000124105
0.000124124
0.000119283
0.000124127
0.000123973
0.000124089
0.000124065
0.000124101
2.39419e-05
3.05888e-05
4.78536e-05
0.000123971
0.000124131
0.000124114
0.000124125
0.000123944
0.000124028
0.000123962
0.000123963
0.000124014
0.0001226
0.000123962
0.000123967
0.000124122
0.000120768
0.000123977
0.000123971
0.000124129
0.000124091
0.000124109
0.000124115
0.000124091
0.000123938
0.000124126
0.000123941
0.000123869
0.00012372
0.00012413
0.000124092
0.000124064
0.000124138
0.000123952
0.000124044
0.00012412
0.000124083
0.000123836
0.000124097
0.000124034
0.000124055
0.000123946
0.000124136
0.00012409
0.000123649
0.000123547
0.000123692
0.000124141
0.000124051
0.000123963
0.000124145
0.000123926
0.000124144
0.000123966
0.000123959
0.000124094
0.000124134
0.000124139
0.000124024
0.000124112
0.000123979
0.000124119
0.000124139
0.000124115
0.000124066
0.00012407
0.000123625
0.000124033
0.000123964
0.000123967
0.000124026
0.000123949
0.000124109
0.000120242
0.000124143
0.000124118
0.000123719
0.000124115
0.000123955
0.000123643
0.000124077
0.000124074
0.000124118
0.000123972
0.000122635
0.000124143
0.000123959
0.000123625
0.00012369
0.000124044
0.000124121
0.000124136
0.000124131
7.61662e-06
3.67871e-06
2.07253e-06
3.81597e-05
3.67019e-05
5.66039e-06
3.83077e-05
1.57453e-05
3.72859e-05
1.78114e-05
0.000123963
0.000123952
0.000124129
0.000124127
0.000124133
0.000124131
0.000124125
0.000124122
0.000124127
0.000124128
0.000124089
0.000124134
0.000124129
0.000124135
0.000124067
0.000123429
0.000124137
0.00012217
0.000124111
0.000124118
0.000124061
0.000123972
0.000124118
0.000124129
0.000124124
0.000123536
0.000122518
0.000123089
0.000123493
0.000124121
0.000124127
0.000124057
0.000123937
0.00012412
0.000123003
0.000123351
0.000123938
0.000124117
0.000123811
0.000124111
0.00012412
0.000124093
0.000123782
0.000123926
0.000124118
0.000124127
0.000124123
0.000123918
0.000124105
0.000123913
0.000124136
0.000123959
0.000123956
0.000124133
0.000123747
0.000123928
0.00012397
0.000123594
0.000124082
0.00012374
0.000124027
0.000124032
0.000124109
0.000123509
0.000124019
0.000123917
0.000123923
0.000124092
0.000123848
0.000124008
0.000123918
0.000123826
0.000123916
0.000124138
0.000123891
0.000124132
0.000123974
0.000124107
0.000123961
0.00012396
0.000124139
0.00012386
0.000124129
0.000123851
0.000123897
0.000123965
0.000123942
0.000123976
0.000123963
0.000123727
0.000123935
0.000123884
0.0001241
0.000123955
0.000123795
0.000124086
0.000123352
0.000123898
0.000123249
0.000123125
0.000123948
0.000123914
0.000123948
0.000123945
0.000123905
0.000124137
0.000123991
0.000124076
0.000123996
0.000123996
0.000124009
0.000124087
0.00012374
0.000124133
0.000123778
0.000123669
0.000123982
0.000124107
0.000123689
0.000124132
0.000124034
0.000124073
0.00012409
0.000123974
0.000123937
0.000123755
0.00012391
0.000123929
0.000123984
0.000124032
0.000124104
0.000124118
0.000124126
0.000123891
0.000123991
0.000124111
0.00012412
0.000124116
0.000123914
0.000124127
0.000123998
0.000124103
0.000123879
0.000124128
0.000123869
0.000124106
0.000124003
0.000123938
1.16438e-05
2.19139e-05
0.000123904
0.000123966
0.000124135
0.000123898
0.000124136
0.000123977
0.000124128
0.000124107
0.000123855
0.000124101
0.000123933
0.00012413
0.00012397
-2.09383e-07
0.000123815
0.00012411
0.000124106
0.000123816
0.000123947
0.000123984
0.000124101
0.000123877
0.000124122
0.000124012
0.000123963
0.0001241
0.000123923
0.000123849
0.000123877
0.000123975
4.74588e-05
0.000124117
0.0001241
0.000123959
0.000124123
0.000124039
0.000123983
0.000123961
0.000123956
0.00012411
0.000123985
0.000123891
0.000123998
0.000123893
0.000124122
0.000123901
0.000123952
0.00012399
0.000124073
1.98753e-05
2.73339e-05
3.42973e-05
9.63974e-06
0.00012394
3.30552e-05
2.59997e-05
0.000124119
1.90769e-05
1.70336e-05
3.81896e-05
7.57061e-06
3.99427e-05
5.5991e-06
4.08377e-05
3.68833e-06
4.28216e-05
1.87818e-06
3.63972e-05
2.31987e-05
2.94499e-05
1.49962e-05
0.000123814
0.00012413
0.000124008
0.000124014
0.000120933
0.000124063
0.000124125
0.000124096
0.000123911
0.00012413
0.000124126
0.000124112
0.000124109
0.000123877
0.000123958
0.000124109
0.000124114
0.000123954
0.000123835
0.000123871
0.000123452
0.000123907
0.00012414
0.000124116
0.00012397
0.000124137
0.000123815
0.000123981
0.000123773
0.000122903
0.00012411
0.000124121
0.000124139
0.000123823
0.000123994
0.000123774
0.000123979
0.000123967
2.60414e-05
2.18762e-05
3.3037e-05
1.16224e-05
0.000124145
0.00012382
1.9821e-05
2.82548e-05
3.56047e-05
9.58669e-06
0.000123956
0.000124065
0.000123916
0.000123925
0.000123964
0.000124073
0.000123866
0.000124107
0.000124038
0.000123146
0.000123929
0.000123897
5.93419e-05
0.000123269
0.000124135
0.000123948
0.00012385
0.000124124
0.000124127
0.000123934
0.00012373
0.000123963
0.000124037
0.000123811
0.000124082
0.000122958
0.000123904
0.000123907
0.000124082
0.000100872
0.000123931
0.000123533
0.000123884
0.000124136
0.000123781
1.08983e-05
2.11166e-05
3.53691e-05
2.81879e-05
1.36699e-05
5.68355e-08
4.20717e-05
2.69078e-06
4.01575e-05
4.76057e-06
3.94192e-05
6.81286e-06
3.86271e-05
8.85718e-06
3.72927e-05
1.36771e-05
3.17279e-05
3.05824e-05
2.39385e-05
2.52788e-05
1.77702e-05
1.29416e-05
1.57154e-05
0.000124129
0.000102466
0.000123941
0.000123879
0.000124133
0.000124026
0.000124138
0.000123858
0.000123997
0.000124102
0.000124097
0.000124114
0.000123863
0.000123969
0.000123847
0.000124066
0.000123907
0.000124133
0.000123993
0.000123825
0.000123828
0.00012398
0.000123972
0.00012414
0.000124131
0.000124137
0.000124102
0.000124141
0.000123775
0.000123963
0.000124135
0.000123907
0.000124038
0.000123964
0.000123989
0.000123841
0.000124101
0.0001241
0.000123414
0.000121414
0.000123143
0.000123687
0.000123963
0.000123791
0.000123978
0.000124138
0.000124097
0.000123968
0.000123575
0.000123559
0.000124134
0.000124103
0.000123986
0.00012407
0.000123612
5.83382e-05
4.01135e-05
0.000124075
0.000124092
0.000123454
0.000122797
0.000123947
0.000123676
0.000123421
0.000123964
0.000123848
0.000124118
0.000123991
0.00012402
0.000119038
5.4474e-05
0.000123988
8.12417e-05
1.86332e-06
-3.79414e-07
0.000123957
0.000123928
0.000124102
0.00012414
0.000124127
0.000124134
0.000124129
0.000123944
-2.30646e-06
0.000122878
0.000123979
0.000124083
0.000122047
0.000124133
0.000124133
0.000122338
0.000124058
0.000124104
0.000121728
0.000124133
7.63822e-05
0.000124131
0.00012369
0.000124096
0.000122423
0.000123666
0.000123712
0.000123991
0.000124136
0.00012409
0.000124132
0.000124143
0.000123971
0.000116222
)
;

boundaryField
{
    back
    {
        type            empty;
    }
    ingreso
    {
        type            zeroGradient;
    }
    salida
    {
        type            fixedValue;
        value           uniform 0;
    }
    front
    {
        type            empty;
    }
    defaultFaces
    {
        type            zeroGradient;
    }
}


// ************************************************************************* //
