/*--------------------------------*- C++ -*----------------------------------*\
  =========                 |
  \\      /  F ield         | OpenFOAM: The Open Source CFD Toolbox
   \\    /   O peration     | Website:  https://openfoam.org
    \\  /    A nd           | Version:  7
     \\/     M anipulation  |
\*---------------------------------------------------------------------------*/
FoamFile
{
    version     2.0;
    format      ascii;
    class       volVectorField;
    location    "103";
    object      U;
}
// * * * * * * * * * * * * * * * * * * * * * * * * * * * * * * * * * * * * * //

dimensions      [0 1 -1 0 0 0 0];

internalField   nonuniform List<vector> 
591
(
(0.000837864 -3.38632e-06 1.2162e-18)
(0.000834211 -2.95703e-06 -6.61547e-19)
(0.000853229 2.11169e-05 5.69854e-20)
(0.000868056 -2.69298e-05 -1.49009e-19)
(0.000856381 -1.15575e-05 2.2543e-19)
(0.000803635 -3.81635e-05 -1.39566e-19)
(0.000562033 -0.000219482 8.0609e-19)
(0.00080365 4.25538e-06 2.10751e-18)
(0.00572233 0.00251082 9.8795e-19)
(0.000817767 1.09916e-06 2.44508e-18)
(4.56758e-05 0.000159325 1.21783e-18)
(0.000938935 0.00139649 9.4069e-21)
(0.000801403 4.30528e-06 1.32263e-18)
(0.00160442 0.00240486 -7.87359e-19)
(0.000803267 1.40258e-06 -4.46498e-19)
(4.13892e-05 -0.000144629 2.50586e-22)
(0.000141182 0.000667881 7.04761e-19)
(0.000817781 8.06759e-05 -4.96873e-19)
(0.00189613 0.00039217 4.73709e-19)
(0.00135911 0.000257944 -2.47071e-19)
(0.000831007 -8.95415e-06 3.73072e-19)
(0.00340065 0.00656003 -8.14496e-20)
(2.26829e-05 6.28789e-05 2.7085e-19)
(0.000835893 -2.58595e-05 -4.51519e-19)
(5.72971e-06 -1.06152e-05 3.58779e-19)
(0.000794016 4.48989e-05 0)
(9.48533e-05 0.00046593 1.59923e-19)
(0.000578037 -3.0025e-06 -1.78766e-19)
(0.000767461 4.77455e-05 1.14903e-18)
(0.000805815 7.21234e-05 5.84124e-19)
(4.79106e-05 -5.81635e-06 -5.35588e-24)
(2.01285e-05 -3.78941e-05 3.52038e-19)
(2.704e-05 -2.4875e-06 -4.64042e-20)
(3.65161e-05 -1.22561e-05 0)
(4.49435e-05 -1.28204e-05 1.13101e-18)
(0.00116974 0.000141134 1.7982e-19)
(2.26436e-05 -4.03326e-06 4.46972e-20)
(0.000823869 4.8118e-07 3.11354e-23)
(2.25507e-05 3.75777e-05 2.65929e-19)
(-9.24405e-06 -5.60564e-05 -8.52919e-19)
(0.000661017 -0.00018688 9.58658e-19)
(1.73924e-05 -4.69838e-06 4.54648e-20)
(0.000815509 2.10115e-05 -1.57727e-18)
(0.00083193 5.07929e-05 -6.9073e-19)
(1.11017e-05 -5.21548e-06 0)
(4.69693e-05 3.40651e-06 8.51546e-20)
(0.00134982 0.00450302 8.92774e-19)
(6.66571e-05 9.45898e-06 8.63301e-20)
(0.000802694 1.69097e-05 0)
(0.000395657 -0.000232827 6.76901e-19)
(0.000391278 0.000265086 5.1175e-21)
(0.000405912 2.95097e-05 -1.0034e-18)
(0.0063478 0.0109403 -7.6865e-19)
(0.00622448 0.0107953 1.52788e-20)
(0.00561457 0.0103782 1.45589e-18)
(0.000805199 4.98317e-05 0)
(6.00156e-05 2.42885e-05 0)
(0.00032109 -1.08087e-05 2.82557e-23)
(5.45655e-05 5.97099e-06 -3.46328e-19)
(0.00081206 -6.77384e-06 0)
(0.000667238 2.81736e-05 3.17433e-19)
(0.000847394 2.96875e-05 2.20774e-18)
(0.000812439 3.99378e-05 -5.36972e-19)
(0.000800059 1.13215e-05 -3.1564e-19)
(0.0017136 0.000486659 5.42409e-19)
(0.000812387 3.39818e-05 -1.14449e-18)
(0.000839943 3.81426e-05 -5.23821e-19)
(6.84254e-05 -8.13031e-06 -1.73345e-19)
(0.000690899 0.00225698 0)
(0.00084612 5.03511e-05 0)
(0.000794293 2.89743e-05 -1.39224e-18)
(3.27296e-05 1.27486e-05 0)
(0.000293867 0.000261698 3.26744e-19)
(3.08575e-05 -1.50158e-05 0)
(3.30402e-05 -5.43882e-06 1.59412e-19)
(4.80552e-06 -3.27756e-05 -3.36532e-20)
(0.000805089 7.93025e-05 2.46924e-19)
(3.79224e-05 7.8164e-06 0)
(0.000813897 5.56718e-05 4.47377e-19)
(0.000783108 0.000296335 2.10651e-19)
(0.000960148 6.93393e-05 -3.97597e-20)
(3.73829e-05 1.86637e-05 -4.51691e-20)
(3.14309e-06 -1.0127e-05 0)
(0.0004446 0.000209676 1.70127e-19)
(2.63857e-06 1.53939e-05 0)
(0.000807642 4.94198e-05 -6.07787e-19)
(0.000652897 -0.000113826 0)
(5.49188e-05 -5.32201e-06 -1.74413e-19)
(7.40269e-07 -1.44699e-05 0)
(0.000837643 0.00024307 -3.41128e-19)
(1.77779e-06 -5.47606e-06 0)
(0.000434247 0.000318602 -1.35432e-23)
(0.000547825 0.000106719 0)
(0.000817389 4.46711e-05 -3.1201e-24)
(2.08834e-06 9.04636e-06 -4.21553e-20)
(0.000476989 -3.122e-05 1.76281e-18)
(0.00101718 7.41496e-05 4.15764e-20)
(0.000777975 4.77135e-05 6.41602e-22)
(0.000749084 0.000660199 2.69409e-19)
(6.87739e-06 3.73117e-05 0)
(-7.72414e-06 -1.42255e-05 -3.1219e-19)
(-3.74542e-05 -6.12296e-06 -1.10152e-18)
(5.16032e-06 6.24147e-05 -5.96148e-19)
(0.000590469 -3.01677e-05 0)
(9.28136e-06 8.54968e-05 0)
(0.000821932 3.58969e-05 2.181e-18)
(0.000802945 3.93767e-05 1.53372e-18)
(0.000455767 -0.00011811 0)
(3.8609e-05 0.00020536 -8.95036e-19)
(1.49282e-06 0.000148198 4.9677e-19)
(5.54024e-05 0.000387161 6.25076e-19)
(0.000312583 6.22204e-05 -9.36874e-19)
(0.000801805 1.99277e-05 1.37366e-19)
(0.000255971 -7.71523e-05 5.31014e-19)
(4.15652e-06 2.32993e-05 0)
(1.84795e-05 0.00026587 -1.09387e-18)
(0.000327282 0.000317144 -1.61654e-19)
(-1.88031e-06 -9.22247e-06 1.46496e-19)
(0.000670414 0.000803769 0)
(0.000375972 0.000379385 5.74234e-20)
(0.000827267 3.1448e-05 1.07023e-18)
(0.000799742 1.77353e-06 -2.72508e-18)
(6.69272e-06 1.69455e-05 0)
(0.000658281 -4.24861e-05 -1.12267e-19)
(0.000324711 -0.0001563 1.24271e-18)
(0.00261718 0.000810404 -3.36505e-19)
(8.49493e-06 0.000114493 -6.13077e-19)
(9.12959e-06 0.000142551 1.61941e-18)
(0.000649912 2.60448e-05 -3.89651e-20)
(5.21761e-05 -1.68824e-05 -7.49875e-19)
(0.000812963 4.06164e-05 -3.90291e-19)
(0.000701077 2.79473e-05 -4.10444e-20)
(3.10539e-05 0.000313135 -5.97009e-19)
(0.000507625 4.90091e-05 -4.93753e-19)
(3.98291e-05 -4.55447e-06 1.56091e-19)
(0.000843428 4.3342e-05 -1.08626e-18)
(0.00152884 0.000235477 -1.13639e-18)
(5.315e-06 5.0101e-05 4.96245e-19)
(0.000814009 3.79327e-05 -5.03324e-19)
(0.000926228 0.000556524 -7.84827e-20)
(0.000150284 0.000777479 0)
(0.000605769 6.1568e-05 0)
(0.000278916 3.69549e-05 -1.60891e-18)
(5.78775e-05 5.0734e-05 -1.37359e-18)
(2.62055e-05 1.68496e-05 0)
(0.00424786 0.00740114 -1.0196e-20)
(0.00422594 0.00737268 3.16612e-20)
(0.00442811 0.00757541 -4.98489e-21)
(0.00420537 0.00773336 0)
(0.00419783 0.0075992 5.77271e-19)
(0.00424481 0.00740218 -9.20266e-20)
(0.00420917 0.00804073 4.84513e-19)
(0.00429058 0.00742366 0)
(0.00420765 0.00853345 6.16823e-19)
(0.00432713 0.00745234 2.23936e-19)
(0.000837727 2.49807e-05 -1.37191e-18)
(0.00078698 6.33582e-05 0)
(0.000209754 3.47975e-05 1.27658e-19)
(4.34271e-05 1.1591e-05 8.71515e-20)
(7.1255e-05 3.63141e-05 6.79768e-19)
(9.74528e-05 3.04558e-05 -3.41543e-19)
(8.86252e-05 -3.7628e-06 0)
(4.03343e-05 2.37753e-06 8.18056e-20)
(0.00020826 0.000117695 0)
(0.000158681 2.45857e-05 -5.24141e-20)
(0.000349332 0.000212512 -5.09094e-21)
(5.01463e-05 3.61443e-05 -4.37491e-19)
(8.21166e-05 1.80209e-05 -8.52154e-20)
(8.42326e-05 5.20644e-05 1.31147e-21)
(0.00026307 0.000357918 -6.65974e-19)
(0.000110866 0.000989819 0)
(3.77202e-05 4.57844e-05 3.42935e-19)
(0.000199992 0.00173856 0)
(0.000209252 0.00024359 7.0444e-19)
(2.90572e-05 -2.83257e-06 1.11452e-19)
(0.000496774 0.000158111 -1.72244e-19)
(0.000779743 2.9912e-05 -1.92346e-18)
(3.4932e-05 -1.85758e-06 4.92656e-24)
(0.000138209 1.03053e-05 2.24511e-19)
(0.00024711 7.62532e-05 -8.99013e-20)
(0.000883856 0.000694543 3.3484e-19)
(0.000726364 0.00163469 -9.2331e-21)
(0.000394855 0.00141762 -9.37962e-21)
(0.00103237 0.000549006 0)
(8.72623e-05 -2.23384e-05 1.1183e-18)
(0.000104731 2.65781e-06 -4.42802e-20)
(0.000476014 -0.000264688 -1.13603e-18)
(0.00082668 4.39557e-05 0)
(0.000173447 -2.08451e-05 3.63183e-19)
(0.000307051 0.00129626 0)
(0.00108981 0.000773282 -7.29971e-20)
(0.000826771 2.6471e-05 -1.8648e-19)
(6.28729e-05 -2.4624e-05 -2.99864e-19)
(0.000843847 0.000314045 -2.0797e-20)
(4.20216e-05 -2.10609e-05 -5.99253e-19)
(0.000228327 0.000162793 8.63603e-20)
(0.000232526 0.000302248 -3.44903e-19)
(0.000900715 0.000254333 0)
(0.00082889 5.87612e-05 0)
(0.000268002 0.0001187 1.76788e-19)
(0.000231545 -2.25661e-05 8.43963e-24)
(0.000185339 0.000195284 0)
(0.00030833 0.000643476 -5.5552e-21)
(0.000365691 -3.69123e-05 0)
(0.00038341 0.000598145 0)
(0.000102853 7.09368e-05 -1.34621e-21)
(0.000810548 3.08691e-05 -9.56299e-19)
(0.000805001 1.6403e-05 7.94748e-19)
(0.000122022 4.44366e-05 -1.49802e-19)
(0.000976431 0.000145902 8.50051e-20)
(0.000841699 3.69019e-05 3.33522e-19)
(0.000823325 3.65304e-05 -2.93964e-19)
(0.00103541 0.000422025 0)
(0.000451386 0.000105767 6.24203e-19)
(0.000917328 0.0003245 2.0906e-20)
(0.000596042 0.000149469 0)
(0.000276287 0.000442397 4.09522e-19)
(0.000263653 0.000205954 -8.43909e-20)
(0.00110697 0.000385906 -7.81817e-19)
(0.000644335 0.000102442 -1.79221e-19)
(0.000824731 7.77682e-05 -7.45751e-21)
(0.000846456 2.15766e-05 9.39381e-20)
(4.71403e-05 -8.47963e-05 -1.98054e-18)
(0.000747473 0.000379351 2.19162e-19)
(0.000690085 7.03596e-05 2.30559e-20)
(0.000718876 0.000278797 1.62621e-23)
(0.000742366 0.000462059 -4.09539e-19)
(0.000855293 1.36991e-05 9.06719e-20)
(6.70171e-05 6.96948e-05 0)
(0.000664828 0.000425682 -4.65766e-20)
(0.000181105 8.01033e-05 0)
(0.000374236 0.000501277 -2.64762e-19)
(0.000313408 0.000154497 0)
(0.000688392 0.000205623 3.55092e-19)
(0.000662459 0.00025947 -4.37092e-20)
(7.86218e-05 9.51393e-05 6.18931e-19)
(0.000888745 9.75943e-05 -1.63828e-18)
(5.0485e-05 1.67015e-05 2.57094e-19)
(0.000901494 7.40007e-05 -1.68587e-18)
(0.000851955 9.13297e-05 1.63023e-19)
(0.000815915 3.83123e-05 1.91191e-18)
(0.000822813 3.25799e-05 -1.32794e-19)
(0.000749168 7.02396e-05 0)
(0.000805053 1.89007e-05 8.97807e-19)
(0.000975888 0.000239618 -4.26929e-19)
(0.000792639 0.000102008 -4.8355e-19)
(0.000784775 0.000238627 -8.8088e-20)
(0.00019142 -0.000200673 -2.07447e-18)
(0.000767945 8.27396e-05 8.87191e-19)
(0.000645375 0.000590659 0)
(5.11826e-05 -0.000123079 0)
(0.00123142 0.000477689 4.97129e-19)
(0.000537032 -5.40121e-05 -3.27012e-18)
(0.00135713 0.000419365 5.76227e-19)
(0.00125602 0.000720781 -6.3881e-20)
(0.000817833 3.50775e-05 -2.12669e-19)
(0.000845355 6.64796e-05 -1.42776e-18)
(0.000814047 2.74921e-05 1.58651e-18)
(0.000814216 1.94672e-05 9.7768e-20)
(0.000677277 0.000353278 -4.40249e-20)
(9.81401e-05 0.000110944 9.74076e-24)
(0.000769152 -2.67806e-05 2.64865e-19)
(0.000205667 -0.0002563 -7.30835e-19)
(0.000644416 0.000181656 0)
(0.000730043 5.16493e-05 9.89985e-20)
(0.000725575 9.93676e-06 -3.80656e-19)
(0.000398967 0.000160822 3.93228e-20)
(0.000814423 0.00051069 -1.65421e-19)
(0.00014365 6.15475e-05 4.31544e-25)
(0.00082287 0.000412598 0)
(0.000992387 0.000315616 4.15607e-20)
(0.00077208 -5.73968e-05 -6.15822e-19)
(0.000357676 8.99228e-05 4.97657e-19)
(0.000906242 0.000427808 0)
(4.32843e-05 2.5866e-05 1.3366e-19)
(0.000497798 0.000259889 2.13876e-19)
(0.000555051 -0.000174398 -7.09131e-19)
(8.51859e-05 -0.000176832 -1.05577e-18)
(0.000827267 4.23394e-05 -4.86501e-19)
(0.000757508 -5.75978e-05 -1.94578e-19)
(0.000552849 0.000728241 -1.17404e-18)
(0.000857051 4.53877e-05 -6.73802e-20)
(0.000553113 -7.70979e-06 1.28247e-18)
(0.000722185 9.94154e-05 2.27687e-20)
(0.00054755 0.000202291 -1.65627e-19)
(2.19918e-05 -1.7901e-05 -8.75512e-20)
(0.000145136 -6.47936e-05 2.40505e-18)
(1.11205e-05 4.98297e-07 -1.94785e-19)
(0.000846527 0.000120268 3.63602e-19)
(0.000686142 0.000134578 0)
(0.000165566 -0.000117548 -1.04781e-18)
(0.000108208 -3.00614e-05 3.12667e-19)
(8.77447e-05 -4.26201e-05 1.21149e-23)
(0.000814099 0.000105916 -3.19138e-19)
(0.000142146 -2.66015e-05 0)
(0.000600169 0.000237087 0)
(0.000111387 0.000320009 -3.62737e-19)
(0.000871276 0.000101966 2.10764e-18)
(9.03403e-06 6.34192e-07 0)
(0.000891203 5.13921e-05 0)
(3.29613e-05 -2.4283e-05 0)
(0.000815151 4.91167e-05 -4.46625e-21)
(0.000780516 -2.47658e-05 0)
(0.00426099 0.0074079 8.07091e-20)
(0.00436302 0.00748839 1.4335e-19)
(0.000842317 -2.06123e-05 0)
(0.000801048 -3.02349e-05 8.11513e-19)
(0.000151126 0.000112538 1.49158e-19)
(0.000865326 6.64537e-05 8.0819e-19)
(0.000125706 9.00517e-05 2.34311e-20)
(0.000795592 -1.75873e-05 6.23925e-19)
(2.94391e-05 7.39972e-06 0)
(2.07266e-05 -1.07356e-05 -4.48304e-20)
(0.00090968 4.66645e-05 -4.86351e-19)
(2.25053e-05 -2.69864e-05 -6.69542e-19)
(0.00077325 0.000128088 -4.23068e-20)
(0.000169444 0.00015022 -1.88036e-19)
(0.00081338 3.2443e-05 0)
(0.00468253 0.00815355 9.00635e-22)
(0.000196655 0.000791967 3.33354e-19)
(9.24471e-05 -6.98594e-05 -9.14171e-19)
(4.68363e-05 -3.43566e-05 -1.16834e-18)
(0.000580608 1.29615e-05 1.89538e-20)
(0.000586763 0.000402769 0)
(0.00042695 0.000445978 -2.56249e-19)
(6.08417e-05 -6.49918e-05 1.1833e-18)
(0.000543448 -1.87965e-06 7.67471e-20)
(3.52813e-05 7.46636e-07 4.06934e-19)
(0.000729642 -3.944e-05 1.17111e-18)
(0.000812905 3.22408e-05 -6.06201e-19)
(4.45678e-05 -5.32153e-05 1.70885e-18)
(0.000840842 -4.60225e-05 -6.37956e-24)
(0.000556922 5.96123e-06 -3.7474e-20)
(0.000880043 7.22574e-05 0)
(0.000847317 5.43387e-05 0)
(0.005915 0.00724364 2.59972e-19)
(1.12533e-05 -3.09896e-06 -1.19553e-19)
(8.68392e-05 -0.000118789 7.72766e-19)
(0.000742003 0.000113896 -6.96151e-19)
(1.37597e-05 3.09484e-07 2.01477e-19)
(0.000659816 -3.5603e-05 -7.23498e-19)
(0.000759033 3.55351e-05 1.55739e-18)
(0.000718854 0.000156557 -3.553e-19)
(0.00080724 -1.13371e-05 3.60718e-19)
(5.94e-05 -3.74783e-05 1.11555e-18)
(0.000801892 6.53583e-06 -3.22559e-19)
(0.000876893 3.44058e-05 0)
(0.000553587 0.000300843 4.20866e-20)
(0.000869814 4.85889e-05 -9.4744e-19)
(1.20525e-05 2.96525e-06 9.11246e-19)
(0.000863314 3.96068e-05 9.6591e-19)
(0.000864645 2.87697e-05 -9.64177e-19)
(0.00076906 2.28232e-06 -5.68929e-19)
(0.000556048 -8.58809e-05 -5.25422e-19)
(0.00433008 0.00745458 2.47045e-19)
(0.00422263 0.00752792 -2.53667e-19)
(0.00422026 0.00758576 2.6696e-19)
(0.00425659 0.00741164 1.97992e-19)
(0.000845148 -3.92591e-05 1.44212e-19)
(0.00447702 0.00751511 0)
(0.0044046 0.00751912 -3.86818e-19)
(1.97051e-05 -1.5238e-07 -9.9785e-19)
(0.00416993 0.00746833 -6.33704e-20)
(0.00414545 0.00743161 -2.21535e-19)
(0.00602921 0.0106048 0)
(0.00654021 0.0111867 3.71512e-20)
(0.00600913 0.0105745 0)
(0.00655591 0.0112103 1.30955e-19)
(0.00599657 0.0105986 2.69681e-19)
(0.00659261 0.0112272 1.24705e-20)
(0.00593548 0.0106112 -7.76795e-19)
(0.00662288 0.0111462 8.16207e-21)
(0.00390341 0.00919718 -1.908e-19)
(0.00418614 0.0074873 3.90007e-21)
(0.00423712 0.00755125 7.93659e-20)
(0.00414995 0.00743393 4.12076e-20)
(0.000898142 0.000197287 4.46557e-20)
(6.1829e-06 8.52179e-07 0)
(0.000731068 -9.7487e-05 0)
(0.000657005 5.8144e-05 0)
(0.00244658 0.00111907 4.23444e-21)
(0.000759029 -3.01415e-05 1.72507e-19)
(3.40899e-05 4.00198e-06 4.53883e-20)
(4.62126e-06 -2.02238e-05 1.65231e-18)
(0.000864766 2.67738e-06 0)
(2.35034e-05 1.01182e-05 -1.91654e-19)
(0.000139006 0.00021411 0)
(9.89704e-06 -7.64547e-07 0)
(7.56278e-06 -8.15056e-07 0)
(0.000840282 0.000150319 1.1373e-20)
(0.000811008 -1.78612e-05 1.79539e-19)
(3.87225e-05 0.000253796 -8.6559e-24)
(0.000156107 0.000265207 -1.84134e-18)
(0.000614419 0.000325514 -8.56707e-20)
(0.000904856 0.000115329 6.0187e-19)
(0.000586691 -0.000140808 6.7472e-19)
(0.000358078 0.001117 0)
(0.000483552 0.000575339 2.71449e-18)
(8.78002e-05 0.000136262 -1.80253e-18)
(1.32371e-05 -3.12098e-07 0)
(0.000822903 -6.44182e-05 3.64041e-20)
(1.32815e-05 3.02712e-05 1.64388e-18)
(0.000892967 3.6346e-05 2.71019e-19)
(-3.19074e-05 8.81361e-05 3.81023e-18)
(0.000924892 4.23289e-05 -2.68888e-19)
(0.00133231 0.000156828 7.4721e-19)
(2.73113e-05 -9.24646e-06 8.25391e-20)
(2.91028e-05 1.93452e-06 -8.58782e-19)
(5.07014e-05 0.000132565 0)
(0.000922175 9.08772e-05 5.98176e-19)
(0.000500691 0.000366115 2.37069e-19)
(0.000605026 1.71425e-05 -3.88893e-20)
(0.000790689 7.94276e-06 2.5722e-19)
(0.000727294 -0.000130724 0)
(0.00632095 0.0108951 -1.6808e-19)
(0.0063787 0.0109729 4.05886e-19)
(0.00615998 0.0107299 -6.18504e-19)
(0.00650121 0.0111319 -8.09937e-20)
(3.10897e-05 0.000110341 8.00257e-19)
(0.000931842 6.21249e-05 1.44319e-22)
(0.00641128 0.0110054 -3.86511e-19)
(0.00628192 0.0108448 5.48527e-19)
(0.00608008 0.0106716 -4.16846e-19)
(0.00652173 0.0111644 -6.81531e-20)
(7.84752e-05 0.000487176 -2.01765e-20)
(4.03413e-05 -0.000187546 -7.92642e-19)
(0.000632667 -1.9208e-05 -7.6679e-19)
(0.00073349 0.000219382 0)
(0.000800306 2.17615e-07 0)
(0.000190382 0.000384192 3.36198e-19)
(0.00060457 0.000510882 -5.41697e-19)
(4.61732e-06 -8.19162e-07 1.78328e-19)
(0.000200354 0.000466 -7.38181e-19)
(0.00102498 0.000980665 -1.12669e-19)
(0.000757098 0.000166788 0)
(0.000798079 0.000184791 1.30972e-19)
(0.00634828 0.00588362 1.13206e-18)
(0.000735134 0.00113116 8.26458e-20)
(3.44889e-05 3.3279e-05 -7.44414e-20)
(0.00080813 1.12857e-05 0)
(0.000869337 2.15618e-05 -3.56781e-20)
(2.77676e-05 1.81763e-06 -1.96667e-19)
(2.42983e-05 3.12819e-06 1.92932e-19)
(0.000835012 1.14906e-05 5.37006e-19)
(0.000988963 0.000114718 6.57972e-19)
(0.000530556 4.82801e-05 0)
(0.00022051 -0.00025971 -3.98178e-19)
(0.000922033 0.000142999 3.89437e-19)
(8.05994e-07 -4.27667e-05 2.02918e-19)
(0.0014548 0.000444032 -2.58003e-18)
(0.000554444 -1.46165e-05 0)
(0.000803155 0.000141866 3.75328e-19)
(9.66744e-05 0.000384574 0)
(0.00118897 0.00816149 4.62035e-19)
(0.000498825 0.000496695 -1.22418e-18)
(0.000540984 0.00101842 -1.83704e-19)
(0.000890268 1.2578e-05 -1.46004e-19)
(1.01805e-05 2.13368e-05 0)
(0.000964806 7.86674e-05 6.11372e-19)
(0.00410605 0.00739489 8.14417e-20)
(0.00417077 0.0074728 4.731e-20)
(0.00450078 0.00751785 4.5412e-19)
(0.00444607 0.00754345 -3.29431e-19)
(0.00647513 0.0111089 8.10708e-20)
(0.00391478 0.00714593 -9.51486e-22)
(0.00550744 0.00780058 -5.64787e-19)
(0.0040978 0.00737146 5.21885e-21)
(0.00518884 0.0078604 5.11724e-19)
(0.00407957 0.00733982 -4.87376e-20)
(0.00495422 0.00771996 0)
(0.00408479 0.00736408 -8.56789e-20)
(0.0047431 0.00759082 4.92561e-19)
(0.00409803 0.00737567 8.75305e-20)
(0.00457585 0.00753043 0)
(0.00428453 0.00742212 1.39761e-19)
(0.00423847 0.00759732 5.80704e-19)
(0.00446849 0.00752897 -5.55538e-19)
(0.00438879 0.00750663 3.71413e-19)
(0.0042272 0.00752384 2.87894e-19)
(0.00643046 0.0110422 -4.9776e-21)
(0.00411748 0.00740099 3.11649e-20)
(0.00645861 0.0110721 0)
(1.95775e-05 4.16839e-06 -1.89792e-19)
(0.00200222 0.00654732 2.28161e-19)
(0.000838264 -6.15818e-05 1.09604e-19)
(0.000851481 7.4404e-08 0)
(5.88274e-07 3.30821e-07 -3.98966e-19)
(-3.68241e-05 -7.02466e-05 6.90978e-19)
(2.28383e-05 5.08898e-05 2.0883e-18)
(0.000840856 0.000188405 -9.00344e-20)
(0.000801694 8.2813e-06 7.06132e-19)
(-4.41594e-08 2.56747e-07 3.09873e-19)
(1.22062e-05 -2.67249e-05 -1.84493e-18)
(0.000763596 2.65424e-05 1.63094e-19)
(0.000874574 0.000126123 -3.07869e-20)
(0.000801093 -6.84841e-06 1.48077e-19)
(0.000436928 0.000678542 0)
(-7.6745e-08 -0.000129376 1.15094e-18)
(0.000876867 -1.83057e-06 1.52477e-19)
(1.74864e-05 2.04282e-05 0)
(0.00012052 0.000552392 -6.31095e-19)
(0.000615107 0.000583179 1.31756e-18)
(0.000335344 0.000757938 0)
(0.000802172 -1.40786e-05 0)
(0.000801848 3.1242e-06 1.17684e-18)
(1.4492e-05 4.35327e-05 -3.51376e-18)
(1.33858e-05 5.29165e-06 3.7349e-19)
(0.000116516 0.000135122 0)
(3.22264e-05 -3.78094e-05 0)
(5.8246e-05 0.00010488 2.00931e-19)
(0.000944184 0.000190543 3.50299e-19)
(0.000801485 1.508e-05 -1.39002e-18)
(2.01863e-05 2.87775e-05 0)
(0.000405846 2.21906e-06 -6.04565e-20)
(0.00079947 3.52677e-05 -1.56296e-19)
(0.000851628 4.9948e-05 1.06517e-18)
(0.000252185 0.000542536 6.32051e-19)
(0.000885634 0.000158247 0)
(1.21596e-05 -1.8554e-05 5.38415e-19)
(1.16052e-06 -1.69609e-06 -3.19849e-19)
(0.000939121 3.5247e-05 0)
(0.0010494 0.00227122 0)
(0.000900311 3.6224e-06 0)
(0.00100886 0.00020922 4.27011e-19)
(0.000818931 -3.73674e-05 -2.84172e-19)
(0.000944714 0.000114459 -6.8451e-19)
(0.000801239 3.72051e-06 0)
(3.97166e-05 6.19592e-05 -1.71507e-19)
(0.000174767 0.000321511 1.08082e-18)
(0.000801151 1.37668e-05 -2.54299e-23)
(0.0011096 0.000208896 -6.6845e-19)
(0.00108783 0.000129662 0)
(1.72856e-06 3.4272e-06 2.50938e-19)
(1.33333e-05 -1.17653e-05 -1.94244e-19)
(0.000550095 4.89056e-05 6.94783e-21)
(-1.04998e-05 -5.6046e-05 0)
(0.00107822 0.000257464 9.4959e-19)
(0.00502878 0.00974821 -2.82869e-19)
(0.00312159 0.00961665 1.27237e-18)
(1.17219e-05 -8.94827e-05 -1.9125e-19)
(3.30015e-05 -6.92524e-05 1.85873e-18)
(0.00119215 0.000259664 1.67283e-19)
(0.00133198 0.00107541 2.34023e-19)
(0.000810533 3.57858e-06 -7.3675e-19)
(0.000200409 0.000948419 -2.38185e-19)
(0.000819634 0.000946826 -2.18523e-19)
(0.000800386 -1.95149e-06 0)
(8.14884e-05 0.000607854 0)
(9.42118e-05 0.000275444 -3.50133e-23)
(0.000720387 -4.81647e-05 -1.67277e-23)
(0.000827684 6.95718e-05 1.5255e-19)
(0.00263295 0.00206796 -1.23116e-18)
(0.00176082 0.0092381 -1.17185e-19)
(0.000833979 7.32691e-05 4.91996e-19)
(0.00631751 0.00405352 -1.76219e-19)
(0.00672081 0.011557 -1.36592e-20)
(0.00473402 0.00784369 4.93468e-21)
(0.000806126 1.35898e-05 -2.16566e-18)
(0.000844103 -3.87329e-07 8.03941e-24)
(4.70217e-06 -4.92762e-06 -3.47893e-19)
(4.47582e-05 8.18474e-05 -3.49161e-19)
(6.1293e-05 0.000258516 8.75035e-19)
(8.39113e-06 1.31462e-05 4.90235e-19)
(8.98065e-05 0.000221182 3.69652e-19)
(0.000818904 1.41889e-05 0)
(0.00534822 0.00949235 1.94922e-20)
(0.00154888 0.000639559 -2.61128e-20)
(0.000819112 4.09296e-05 3.60049e-19)
(1.19303e-05 -7.00774e-05 0)
(0.00184876 0.000749991 5.45874e-19)
(6.86073e-06 5.50881e-06 -2.7006e-19)
(3.00044e-05 2.43723e-05 9.71483e-20)
(0.00133626 0.00139877 6.36518e-19)
(0.000739899 4.98167e-05 1.8304e-19)
(1.35569e-06 -6.0911e-07 -1.7014e-19)
(0.00206573 0.00156353 -1.05559e-18)
(0.000126842 0.00016982 -8.18516e-19)
(0.00392009 0.0084887 -1.09075e-18)
(2.86484e-06 8.6596e-07 8.81123e-20)
(9.25013e-05 -3.43338e-05 -1.25812e-18)
(3.26362e-05 -5.27085e-05 4.05497e-20)
(0.00153316 0.000988796 0)
(0.00104399 0.000142069 -3.99731e-22)
(0.000455714 0.000845509 -4.01961e-20)
(0.000803538 2.75789e-05 -2.33995e-19)
(8.6867e-05 0.000176262 7.3584e-19)
(1.71532e-05 -5.14611e-05 4.0385e-19)
(1.57556e-05 1.26186e-05 -9.46775e-20)
(2.79505e-05 8.34871e-05 -3.20183e-19)
(0.000215971 -0.000157719 -5.45651e-19)
(0.0032515 0.00346818 2.89447e-21)
)
;

boundaryField
{
    back
    {
        type            empty;
    }
    ingreso
    {
        type            fixedValue;
        value           uniform (0.0008 0 0);
    }
    salida
    {
        type            zeroGradient;
    }
    front
    {
        type            empty;
    }
    defaultFaces
    {
        type            noSlip;
    }
}


// ************************************************************************* //
