/*--------------------------------*- C++ -*----------------------------------*\
  =========                 |
  \\      /  F ield         | OpenFOAM: The Open Source CFD Toolbox
   \\    /   O peration     | Website:  https://openfoam.org
    \\  /    A nd           | Version:  7
     \\/     M anipulation  |
\*---------------------------------------------------------------------------*/
FoamFile
{
    version     2.0;
    format      ascii;
    class       surfaceScalarField;
    location    "104.5";
    object      phi;
}
// * * * * * * * * * * * * * * * * * * * * * * * * * * * * * * * * * * * * * //

dimensions      [0 3 -1 0 0 0 0];

internalField   nonuniform List<scalar> 
1111
(
7.10165e-09
1.28956e-08
-1.60558e-08
-3.94149e-09
7.03654e-09
-1.17772e-08
1.18423e-08
-1.47368e-08
5.83425e-09
8.78727e-09
1.15286e-10
9.63568e-10
-1.11749e-09
-1.43903e-08
1.45443e-08
-1.43561e-08
1.41704e-08
1.14931e-09
-1.61275e-09
1.49155e-08
2.12583e-09
-2.6493e-09
9.36066e-09
-9.31465e-09
2.60329e-09
-6.72359e-09
-1.26113e-08
1.25965e-08
6.73833e-09
-5.01954e-08
-2.61042e-08
7.62995e-08
-8.1005e-09
7.72577e-09
7.41126e-09
3.25646e-09
3.76602e-10
-3.33536e-09
-2.977e-10
1.58742e-08
-1.6267e-08
-2.32649e-08
2.36577e-08
-9.66658e-09
-7.89995e-09
8.8028e-09
8.76372e-09
-3.55898e-08
1.77317e-08
-3.23722e-08
5.02303e-08
9.49352e-09
-1.96138e-09
-1.42557e-08
-3.42056e-10
1.33825e-09
-2.70856e-09
1.71237e-09
-3.96376e-09
1.33033e-08
1.97318e-09
-1.13127e-08
8.80953e-09
-2.68823e-09
-1.5058e-08
8.9367e-09
3.718e-08
-2.98493e-08
-7.33067e-09
-1.94265e-08
2.97657e-10
1.72312e-08
1.89767e-09
-1.07839e-09
4.23643e-09
-1.78385e-08
1.46805e-08
-6.12271e-08
-3.96143e-09
6.51886e-08
1.36128e-10
-1.1082e-09
-3.24338e-10
1.29641e-09
-1.79473e-09
-1.36398e-08
-6.70392e-11
-2.14793e-10
1.56076e-10
1.25756e-10
-1.04047e-08
-8.62196e-09
1.32058e-08
5.8209e-09
6.83207e-10
-2.13399e-09
-8.23138e-09
9.68216e-09
8.76691e-09
7.45325e-10
-9.83305e-09
3.20818e-10
-2.87272e-09
-8.08199e-09
1.11545e-08
-1.9981e-10
1.14127e-08
-1.05854e-09
-1.54468e-09
-7.66124e-10
7.75452e-10
-2.67619e-11
1.74333e-11
-4.70445e-11
6.34238e-10
1.65889e-10
-7.53082e-10
-3.91497e-10
-4.01739e-11
4.22824e-10
8.84622e-12
-5.96176e-11
-7.24557e-10
1.1573e-10
6.68445e-10
-1.14165e-10
-7.11576e-10
1.00814e-09
-1.83784e-08
-2.05618e-09
-3.15341e-10
3.62249e-11
-1.1238e-10
1.33794e-08
-1.32461e-08
4.10318e-09
-3.37401e-10
5.24096e-10
3.061e-10
-4.92795e-10
2.65866e-11
-1.15072e-09
1.0171e-09
1.07035e-10
-1.86602e-09
1.06756e-08
-1.14588e-08
-2.18949e-10
-1.36431e-10
4.00391e-11
-8.71576e-09
1.05981e-08
-9.98286e-09
1.22825e-08
-1.7139e-08
4.52639e-09
3.30084e-10
4.45724e-11
-1.31474e-10
-1.32047e-10
1.34916e-10
7.22785e-10
-8.22485e-11
-5.95147e-08
7.42313e-08
-1.47166e-08
9.77446e-10
-1.94971e-10
-1.08e-09
2.97522e-10
1.14147e-09
1.0306e-08
-1.37128e-08
2.26534e-09
-1.90214e-09
7.86978e-09
-8.94487e-09
2.97723e-09
-6.77703e-09
5.57214e-09
5.71898e-09
-4.51408e-09
-7.83741e-09
-1.50794e-09
1.60091e-09
7.74444e-09
-1.82907e-10
-9.0913e-08
9.12992e-08
-2.03242e-10
-2.57653e-10
-8.97491e-08
9.01594e-08
-1.52645e-10
8.30783e-08
-1.49223e-09
1.10281e-10
-8.16963e-08
-2.76069e-09
-5.63368e-10
5.86248e-10
7.9527e-10
-4.04072e-10
3.89149e-09
-9.03672e-10
3.54428e-09
-6.5321e-09
-8.89566e-10
8.29511e-10
-1.49194e-08
6.57434e-09
9.96059e-09
1.07317e-09
-1.07462e-08
-2.87523e-10
-6.06013e-09
1.35905e-08
9.2694e-10
-8.45728e-09
1.43867e-08
-4.58616e-09
3.81633e-09
-1.36169e-08
1.53886e-08
1.67265e-09
-1.63246e-09
-1.95905e-10
-2.00711e-08
-7.42785e-09
2.76949e-08
1.45361e-08
-8.86515e-09
-1.85455e-09
8.05446e-09
-1.226e-08
4.53176e-11
2.86939e-12
-1.12818e-09
-3.61204e-08
-2.33942e-08
8.35635e-09
3.10765e-10
3.61535e-09
-6.97391e-09
1.1279e-08
6.29301e-09
-5.47577e-10
2.83305e-10
4.42054e-10
-1.77782e-10
5.68463e-09
-4.82466e-09
3.68917e-09
-4.54914e-09
-3.80318e-10
-5.84486e-10
2.40247e-10
5.84343e-10
-5.08787e-10
3.44621e-11
-6.84759e-10
6.03252e-10
-1.82433e-08
2.39333e-09
1.59923e-09
1.42507e-08
1.89424e-10
-6.34818e-10
-1.02183e-10
-4.22607e-09
-1.51911e-08
1.17389e-09
5.61565e-09
1.21118e-08
-5.23682e-09
-1.24907e-08
1.63852e-08
7.44934e-10
-1.58471e-08
-1.28298e-09
-6.27578e-10
4.07273e-10
5.0361e-10
-2.59113e-10
1.21059e-10
1.38054e-10
-7.49743e-09
-3.49102e-09
4.21142e-09
-1.80238e-10
2.86903e-10
-1.06664e-10
1.0598e-09
-1.56906e-08
-7.53048e-10
1.00948e-08
-1.12078e-08
-8.71011e-10
-2.24651e-10
1.29844e-08
4.46557e-09
-4.20032e-09
-1.32496e-08
5.40206e-11
7.22003e-09
-8.00695e-09
6.35905e-09
-1.58187e-09
-9.10442e-09
8.29258e-09
2.39372e-09
-1.9529e-09
6.9721e-10
-1.39354e-08
-9.42537e-11
-8.59849e-11
3.85644e-10
6.11338e-10
-8.83439e-09
7.76872e-10
1.7266e-08
-1.65769e-09
-1.19155e-08
1.33039e-08
-1.38834e-09
1.22754e-08
1.39178e-08
-1.5494e-08
-1.06993e-08
-4.61927e-10
8.72462e-10
-4.10535e-10
1.70287e-10
3.75872e-11
-2.07875e-10
-6.41738e-11
6.02816e-10
-5.38642e-10
1.26076e-09
-1.00859e-09
-2.52173e-10
-1.05093e-08
9.72524e-10
9.53676e-09
1.87151e-09
-6.1075e-10
8.98029e-09
-1.5421e-08
7.88923e-09
-9.40573e-09
6.51252e-11
3.60129e-09
-4.09955e-10
-2.24811e-09
2.31324e-09
-6.40467e-09
7.74133e-09
-1.33666e-09
-4.40644e-10
4.29383e-09
3.83098e-11
1.72559e-08
-1.44773e-08
-1.6372e-09
-6.18653e-09
5.45764e-09
-1.74784e-10
-1.75025e-10
5.72146e-09
-5.69541e-09
-2.60501e-11
6.83114e-09
4.57246e-09
-5.43631e-11
-1.59111e-08
1.04803e-08
1.77062e-08
5.82229e-09
8.22888e-09
8.16961e-09
-6.84905e-09
1.43649e-09
-1.19458e-08
1.50808e-10
1.53244e-09
-1.30154e-08
2.73375e-09
-4.20516e-10
1.11387e-08
-1.03937e-08
-2.89528e-10
-6.95648e-10
-1.38272e-08
7.79638e-09
6.78518e-10
7.36019e-12
-8.88253e-09
4.97884e-09
-3.00452e-08
-1.25193e-08
-2.84762e-09
1.53974e-09
1.41243e-08
1.10911e-08
-1.08424e-08
-1.43729e-08
1.53671e-08
-3.16946e-09
-1.21976e-08
1.6015e-09
4.01283e-09
-9.09192e-10
-8.74926e-10
-8.02907e-10
1.08986e-09
5.87969e-10
-2.11374e-10
3.29065e-10
3.24363e-10
6.21452e-08
-6.21714e-08
2.62162e-11
6.20647e-08
-6.23689e-08
3.04286e-10
8.37511e-10
6.47307e-08
-6.5558e-08
8.27299e-10
6.41227e-08
6.08045e-10
-2.23717e-10
-6.65035e-08
9.45538e-10
-6.20614e-08
6.19265e-08
1.34808e-10
1.31501e-09
-6.78185e-08
-6.22212e-08
1.59882e-10
1.27264e-08
-5.7289e-10
1.19162e-09
-3.69738e-09
3.07866e-09
2.84631e-10
-1.14683e-09
8.58155e-10
-5.03684e-10
1.3563e-09
-1.57717e-09
7.24556e-10
1.353e-09
-1.42696e-09
7.68331e-11
-3.85484e-11
-3.45958e-09
2.66092e-09
-1.88587e-09
2.68453e-09
-3.42696e-10
-2.69499e-09
2.4648e-09
-3.47359e-09
-5.86516e-09
5.628e-10
-5.70437e-10
1.12628e-09
1.08817e-09
-6.43197e-09
7.86936e-09
3.13508e-09
1.97247e-08
-4.3576e-09
-6.62952e-10
2.77617e-10
9.48135e-10
-1.00807e-08
-2.60398e-08
5.25261e-09
-4.20366e-09
-3.19653e-09
2.14758e-09
9.01832e-11
2.53043e-11
3.07337e-10
-2.49354e-09
3.28868e-09
9.01792e-09
6.81887e-10
-1.42972e-10
2.05341e-09
-2.25313e-09
1.74487e-09
1.4706e-08
1.33361e-08
-2.69242e-08
3.27177e-08
6.31507e-09
-2.28464e-08
-1.03929e-08
1.85482e-08
-1.80365e-08
1.05794e-08
-1.92931e-11
-2.43924e-10
-1.16374e-09
-1.64331e-09
-2.85107e-09
3.26686e-09
1.51795e-08
-6.3517e-10
-1.38471e-08
-8.51067e-10
-2.20178e-09
3.57849e-10
1.54768e-08
1.77773e-08
1.36961e-08
7.61985e-10
-1.73617e-09
-1.27219e-08
-1.437e-09
5.97796e-09
1.26221e-08
-4.17578e-10
-9.89645e-10
-3.668e-09
2.81066e-09
3.51825e-09
2.50981e-09
1.4563e-08
4.31492e-09
-1.44124e-08
1.81142e-08
-1.76078e-09
2.37069e-09
-3.31237e-09
1.91937e-09
-4.96041e-09
1.29263e-08
-1.19296e-08
-1.40546e-08
3.01725e-10
8.79244e-09
-1.77476e-09
1.48143e-09
1.41961e-09
-8.66477e-09
6.99026e-10
-4.55354e-09
-5.98803e-09
1.21734e-08
-1.48501e-08
1.0032e-09
1.68215e-09
-2.20008e-09
1.68591e-08
-1.63411e-08
-1.14017e-09
1.42011e-08
3.11723e-09
-4.49172e-09
-1.40465e-08
7.59811e-09
-1.7456e-08
-8.17862e-09
6.90374e-09
5.87959e-09
1.46614e-08
-1.01106e-08
3.00212e-09
9.5022e-09
9.8156e-09
3.87605e-09
-4.22742e-09
2.1814e-08
-1.92814e-08
5.06553e-09
-1.06784e-08
2.16925e-09
5.70771e-09
1.40057e-08
-3.80235e-10
1.28263e-08
-1.35862e-08
-1.93839e-09
1.61759e-09
-6.12329e-10
9.33134e-10
1.10933e-08
-6.36366e-09
7.38215e-09
-1.10734e-08
1.46819e-09
-4.74302e-09
1.1531e-08
-1.20247e-08
-7.58901e-09
9.25467e-09
9.42767e-09
1.29658e-08
5.40782e-10
-1.38868e-08
1.40356e-09
7.74473e-10
-1.11712e-08
-6.72568e-09
1.03079e-08
-1.31734e-09
2.51013e-09
-9.00595e-09
4.76697e-09
-5.33032e-09
1.16569e-08
-3.46979e-09
-1.18776e-08
3.69055e-09
-4.46216e-09
1.1376e-08
1.77952e-09
1.10547e-09
-5.06443e-09
-1.78828e-08
1.0554e-08
1.23932e-08
7.1007e-10
-1.10894e-08
-1.00643e-08
1.60893e-08
1.26714e-08
2.88383e-09
-9.84747e-09
-1.33472e-08
-3.25446e-10
-1.27597e-08
1.65244e-10
-7.6866e-10
1.17579e-08
1.25558e-08
-8.2378e-09
1.67307e-08
-1.60919e-08
3.67605e-09
-5.0816e-10
1.80322e-09
1.29557e-08
-3.93738e-09
-1.27536e-08
-4.98454e-09
1.92061e-09
4.59637e-09
1.23835e-08
-7.23801e-09
9.98684e-10
-1.68498e-09
4.51466e-10
-7.04878e-10
5.9533e-09
2.64402e-08
-3.39424e-12
-9.3009e-09
9.30429e-09
2.86456e-08
-2.23947e-08
2.21232e-08
1.97937e-08
-1.27211e-08
-2.7178e-09
1.51581e-08
1.51273e-10
-1.21458e-08
-4.6258e-10
-6.00393e-09
-1.83692e-09
2.16211e-09
1.45434e-09
-5.08879e-10
-1.11734e-08
1.16232e-08
5.9103e-11
2.99567e-09
-5.00298e-09
-1.12069e-08
1.07392e-08
-9.29061e-10
-1.0913e-08
-2.63382e-10
-1.14119e-08
-2.45243e-09
-1.2114e-08
2.15066e-09
7.89018e-09
5.15432e-09
-5.23285e-10
-1.18281e-08
1.18425e-08
5.46907e-10
-8.91201e-09
5.11648e-09
-1.58124e-09
2.135e-09
-1.89937e-09
-1.30635e-08
-1.24556e-08
1.19289e-08
-1.01599e-08
-1.58209e-08
1.00698e-08
9.30358e-09
8.04909e-10
2.73678e-09
-1.20377e-08
1.15646e-08
1.66152e-09
3.87888e-09
2.6674e-10
-4.56284e-10
-1.90774e-10
-4.16176e-09
2.49061e-09
-5.30618e-10
1.49393e-10
-1.76258e-10
2.6865e-11
-2.71488e-09
1.31404e-08
2.24588e-09
2.52699e-09
2.5982e-10
-1.29191e-09
-5.95321e-10
-2.2518e-09
-2.03852e-10
1.3094e-08
1.01559e-08
-2.94542e-10
6.7431e-09
-1.24906e-09
-5.1995e-09
-9.8509e-09
-5.14808e-09
1.12648e-10
3.67449e-11
4.8648e-09
1.34678e-09
-1.7301e-08
-2.87688e-10
-7.14376e-10
-2.7796e-09
1.02926e-09
3.17684e-09
6.19479e-08
-8.5617e-11
-6.18623e-08
6.23723e-08
1.88745e-10
-6.2561e-08
-1.41066e-08
-3.21222e-10
1.44452e-08
-1.74344e-11
3.19106e-09
-1.73335e-09
2.44269e-09
1.80079e-09
-4.54027e-09
-2.56582e-10
-4.85866e-10
3.94589e-10
-8.65052e-11
3.80919e-10
-2.50611e-10
1.9764e-08
1.02745e-09
-1.59267e-08
-1.09733e-10
-1.94168e-09
1.26071e-08
2.2903e-09
1.81485e-09
5.34498e-09
-2.13554e-09
-7.72323e-08
-2.41782e-08
-5.02795e-09
1.58481e-08
2.48311e-09
6.38709e-11
-2.84629e-09
-1.00146e-09
2.37796e-10
-2.25981e-10
-9.68783e-09
-3.69912e-10
1.00577e-08
-1.09127e-08
-6.56865e-09
1.07557e-08
-9.52217e-09
8.7451e-09
2.78396e-10
1.40306e-09
9.24329e-09
-9.21553e-09
-2.77508e-11
5.56026e-10
8.73122e-11
1.08736e-08
4.86186e-10
-6.84597e-10
-3.84677e-11
-1.42516e-08
-4.4454e-10
-1.38656e-08
1.27731e-08
-1.19184e-08
-6.60353e-08
6.49927e-08
1.0426e-09
2.02719e-10
-1.77414e-10
1.21033e-08
-1.8288e-10
6.62202e-12
-2.09487e-09
2.75266e-09
-3.41298e-09
-1.34678e-08
-1.62456e-09
2.57608e-09
-4.66839e-09
-1.41636e-08
1.53094e-09
5.54063e-09
9.73176e-09
-9.10228e-09
-2.05008e-10
2.2128e-11
-9.29463e-09
-1.34477e-08
1.51015e-10
-6.26919e-08
2.35502e-10
6.24564e-08
6.95367e-10
6.34273e-08
-2.23537e-10
-1.67796e-09
-1.45071e-08
1.0742e-10
-6.34085e-08
6.3301e-08
1.85411e-10
-6.29496e-08
6.27642e-08
3.05048e-10
6.17982e-08
1.50453e-10
-6.19487e-08
6.16294e-08
1.68808e-10
-8.7889e-08
8.84982e-08
-1.10657e-12
9.33929e-08
-9.30995e-08
-2.67267e-10
-8.66284e-08
-4.33348e-10
9.3352e-08
-1.82762e-10
-8.49155e-08
-7.67386e-10
9.34827e-08
1.73594e-10
-5.2217e-10
1.96148e-09
9.23587e-08
-6.93108e-08
6.21395e-08
-6.23225e-08
-6.29496e-08
6.14871e-08
1.4234e-10
-3.15742e-09
2.96325e-09
-1.42182e-08
4.20123e-11
7.06362e-11
1.12092e-09
8.69852e-09
-1.13868e-08
3.83278e-08
-3.45617e-08
-1.67816e-08
1.38158e-08
-3.20227e-11
-1.99429e-10
1.22691e-10
5.47589e-10
-1.1344e-10
2.96655e-10
4.40905e-09
1.05129e-09
-3.54097e-09
-1.32342e-10
1.68568e-10
-9.23029e-11
-2.59931e-09
1.32875e-08
2.45218e-09
-1.44239e-08
-2.62887e-09
-3.2562e-09
5.50628e-09
1.05035e-09
-2.61323e-09
1.43594e-08
-1.19219e-09
-1.59099e-09
1.58063e-09
-8.12153e-09
-1.90825e-08
-1.35189e-08
8.05012e-09
5.77055e-09
-1.89829e-10
-5.73203e-10
2.92514e-09
1.4493e-08
2.29248e-09
-1.87004e-09
-3.60631e-10
4.1092e-10
-2.25314e-10
1.59141e-08
-6.04942e-10
-1.56791e-08
2.98045e-10
-3.72853e-11
3.35988e-10
-2.69044e-10
3.39564e-09
-1.62097e-08
4.14488e-10
-1.47129e-09
-2.0539e-09
-2.28086e-09
1.57569e-08
-9.05937e-08
-1.33953e-10
9.16788e-08
-1.90872e-10
-8.9164e-08
-4.77697e-10
9.31021e-08
-2.75168e-10
-9.29126e-08
-5.33543e-10
-1.5485e-09
1.68782e-08
9.19803e-08
-1.98735e-10
2.95088e-11
-2.2086e-10
9.71451e-09
2.43454e-09
-7.1919e-09
-1.22716e-08
-5.67645e-09
8.38778e-09
1.51432e-09
-6.76703e-09
-5.98183e-09
9.05172e-09
-4.77303e-11
1.01298e-08
1.95006e-08
-1.79902e-08
3.08814e-09
-1.2785e-08
3.11955e-09
-6.99615e-08
3.92619e-09
-2.06057e-08
-1.30521e-08
-4.53448e-10
-5.92477e-09
-1.53024e-08
9.08131e-09
-1.50962e-08
3.89087e-10
3.29447e-10
-1.94304e-09
-1.67366e-08
1.71358e-08
7.07661e-09
-7.63998e-09
-4.44468e-09
1.53287e-08
-1.68088e-09
7.11632e-10
-7.97324e-10
5.82023e-11
1.19702e-08
3.3186e-09
7.09126e-08
-1.82469e-08
6.78654e-10
-1.50744e-08
-2.16885e-10
-2.50411e-10
-1.27413e-10
6.09498e-08
-6.12249e-08
-6.3379e-08
-6.31484e-08
-6.4274e-11
-2.62176e-10
-9.25861e-08
-6.04525e-08
6.24139e-08
6.5103e-08
-6.02789e-08
6.45808e-08
-6.04616e-08
6.38134e-08
-6.07289e-08
6.33801e-08
9.2309e-08
2.52751e-10
-6.33803e-09
7.51257e-08
-6.54691e-08
2.69098e-11
-2.69098e-11
2.30041e-11
-3.06485e-10
1.54769e-08
-8.43574e-12
8.43574e-12
2.9409e-10
1.51696e-09
1.39118e-08
1.34469e-08
-2.7109e-09
3.71567e-09
6.68265e-09
1.75267e-09
3.43585e-10
-2.31405e-10
-2.96717e-09
1.4581e-08
1.48435e-08
-4.29125e-09
1.18201e-08
1.63014e-10
1.3175e-10
2.68192e-09
-7.74468e-10
-1.48198e-09
-5.84764e-09
-1.99673e-10
-3.74525e-10
1.53125e-08
2.26008e-10
4.55851e-11
1.4312e-08
-2.62663e-08
1.78487e-08
2.68646e-09
1.21177e-09
2.50077e-09
-3.72155e-09
1.93853e-08
-1.81645e-08
-6.7344e-11
1.19028e-11
-1.4413e-09
-7.92124e-08
-7.07521e-08
1.24738e-09
-3.63914e-10
6.12451e-10
2.30128e-08
1.8611e-08
-6.40383e-09
7.54291e-11
-4.22458e-09
-2.52509e-09
2.99554e-08
1.60551e-10
1.48184e-08
7.35789e-08
3.92943e-11
5.04263e-10
-1.39396e-10
-1.97e-10
-3.58324e-09
2.4336e-08
-1.48689e-08
8.95364e-10
-1.41975e-08
-4.37262e-11
2.04043e-08
-2.87495e-08
9.55805e-10
1.87868e-09
-2.00485e-10
)
;

boundaryField
{
    back
    {
        type            empty;
        value           nonuniform 0();
    }
    ingreso
    {
        type            calculated;
        value           nonuniform List<scalar> 
14
(
-1.54286e-08
-1.54288e-08
-1.54288e-08
-1.54288e-08
-1.54286e-08
-1.54283e-08
-1.54288e-08
-1.54288e-08
-1.54286e-08
-1.54286e-08
-1.54288e-08
-1.5428e-08
-1.5428e-08
-1.54286e-08
)
;
    }
    salida
    {
        type            calculated;
        value           nonuniform List<scalar> 2(1.0141e-07 1.14589e-07);
    }
    front
    {
        type            empty;
        value           nonuniform 0();
    }
    defaultFaces
    {
        type            calculated;
        value           uniform 0;
    }
}


// ************************************************************************* //
