/*--------------------------------*- C++ -*----------------------------------*\
  =========                 |
  \\      /  F ield         | OpenFOAM: The Open Source CFD Toolbox
   \\    /   O peration     | Website:  https://openfoam.org
    \\  /    A nd           | Version:  7
     \\/     M anipulation  |
\*---------------------------------------------------------------------------*/
FoamFile
{
    version     2.0;
    format      ascii;
    class       volScalarField;
    location    "16.5";
    object      p;
}
// * * * * * * * * * * * * * * * * * * * * * * * * * * * * * * * * * * * * * //

dimensions      [0 2 -2 0 0 0 0];

internalField   nonuniform List<scalar> 
591
(
0.000124426
0.00012444
0.000124466
0.000124427
0.000124428
0.000124554
0.000124481
0.000124464
0.000117303
0.000124455
0.000124603
0.000123304
0.000124536
0.000120186
0.000124466
0.000124485
0.000124356
0.000124494
0.000122409
0.000123833
0.000124427
-1.68465e-06
0.000124601
0.000124428
0.000124557
0.000124436
0.000124489
0.000124523
0.000124447
0.000124503
0.000124577
0.000124554
0.000124574
0.000124572
0.000124575
0.000123934
0.00012457
0.000124446
0.000124594
0.000124506
0.000124491
0.000124567
0.000124453
0.000124482
0.000124564
0.000124581
0.000119726
0.000124584
0.00012446
0.000124567
0.000124516
0.000124559
2.37383e-05
3.02932e-05
4.82183e-05
0.000124494
0.000124588
0.000124569
0.000124582
0.000124421
0.000124497
0.000124445
0.000124455
0.000124568
0.000123036
0.000124449
0.000124455
0.00012458
0.000121169
0.000124489
0.000124451
0.000124586
0.000124541
0.000124567
0.000124572
0.000124547
0.000124415
0.000124583
0.000124422
0.000124336
0.000124209
0.000124587
0.000124551
0.000124515
0.000124595
0.000124431
0.000124519
0.000124578
0.000124542
0.000124308
0.000124556
0.000124483
0.000124513
0.000124435
0.000124594
0.000124555
0.000124141
0.000124031
0.000124145
0.000124597
0.000124509
0.000124434
0.000124601
0.000124432
0.000124599
0.000124458
0.000124446
0.000124548
0.000124593
0.000124597
0.000124481
0.000124567
0.000124469
0.000124576
0.000124596
0.000124577
0.000124515
0.000124528
0.000124064
0.00012448
0.000124454
0.000124559
0.000124479
0.000124435
0.000124574
0.000120639
0.0001246
0.000124568
0.000124211
0.000124573
0.00012444
0.000124133
0.000124537
0.000124533
0.000124576
0.000124471
0.000123102
0.000124601
0.000124453
0.000124073
0.000124135
0.000124507
0.000124578
0.000124593
0.000124589
8.64904e-06
4.91753e-06
3.37848e-06
3.86291e-05
3.69928e-05
6.82405e-06
3.87083e-05
1.59103e-05
3.77037e-05
1.78354e-05
0.00012445
0.000124427
0.000124587
0.000124584
0.00012459
0.000124587
0.000124582
0.00012458
0.000124582
0.000124583
0.00012454
0.000124591
0.000124586
0.000124591
0.000124515
0.000123873
0.000124594
0.000122574
0.000124562
0.000124576
0.000124515
0.00012445
0.000124575
0.000124584
0.00012458
0.000123983
0.000122932
0.000123517
0.000123944
0.000124579
0.000124583
0.000124553
0.000124426
0.000124575
0.000123416
0.000123793
0.000124429
0.000124576
0.00012428
0.000124568
0.000124573
0.000124542
0.000124247
0.000124413
0.000124572
0.000124588
0.000124575
0.000124365
0.000124555
0.000124367
0.000124592
0.000124457
0.000124451
0.000124588
0.000124223
0.000124417
0.000124476
0.000124051
0.00012454
0.000124201
0.000124485
0.000124477
0.000124561
0.000123975
0.000124482
0.000124398
0.000124422
0.000124547
0.000124312
0.000124477
0.000124383
0.000124284
0.000124412
0.000124595
0.000124348
0.000124588
0.000124417
0.000124562
0.000124428
0.000124422
0.000124593
0.000124337
0.000124586
0.000124334
0.000124381
0.000124474
0.000124438
0.000124451
0.000124451
0.000124194
0.000124412
0.000124355
0.000124553
0.000124441
0.000124254
0.00012454
0.000123804
0.000124381
0.000123735
0.000123559
0.000124445
0.000124399
0.000124436
0.000124433
0.000124367
0.000124591
0.000124468
0.000124536
0.000124457
0.000124474
0.000124484
0.00012454
0.000124201
0.000124587
0.000124243
0.000124133
0.000124465
0.000124565
0.000124146
0.000124589
0.000124485
0.000124531
0.000124547
0.000124477
0.000124416
0.000124199
0.000124408
0.00012442
0.000124454
0.000124486
0.000124563
0.000124572
0.000124582
0.000124371
0.000124456
0.000124565
0.000124577
0.000124573
0.000124395
0.000124587
0.000124455
0.000124553
0.000124356
0.000124585
0.000124354
0.000124563
0.000124495
0.000124421
1.23055e-05
2.18911e-05
0.000124407
0.00012445
0.00012459
0.000124385
0.00012459
0.000124459
0.000124585
0.000124565
0.000124351
0.000124559
0.00012441
0.000124585
0.000124467
-4.30662e-08
0.000124253
0.000124565
0.000124562
0.000124311
0.000124402
0.000124426
0.000124557
0.000124377
0.00012458
0.000124481
0.000124462
0.000124555
0.000124429
0.000124346
0.000124369
0.000124477
4.78047e-05
0.000124573
0.000124555
0.000124436
0.00012458
0.000124504
0.000124461
0.000124431
0.000124443
0.000124566
0.000124543
0.000124382
0.00012445
0.000124388
0.000124581
0.000124394
0.00012442
0.000124467
0.000124546
1.98732e-05
2.69369e-05
3.40953e-05
1.04904e-05
0.00012443
3.27969e-05
2.58354e-05
0.000124577
1.90389e-05
1.70988e-05
3.84312e-05
8.65319e-06
4.03915e-05
6.79688e-06
4.14092e-05
4.91507e-06
4.32629e-05
3.03198e-06
3.67984e-05
2.29221e-05
2.90626e-05
1.52324e-05
0.000124285
0.000124587
0.000124485
0.000124506
0.000121356
0.000124614
0.000124582
0.000124553
0.000124408
0.000124587
0.000124578
0.000124571
0.000124568
0.000124351
0.000124431
0.000124561
0.000124565
0.000124411
0.000124309
0.000124272
0.00012388
0.000124351
0.000124598
0.000124574
0.000124449
0.000124598
0.00012431
0.000124435
0.000124263
0.000123359
0.000124569
0.000124579
0.000124594
0.0001243
0.000124443
0.000124269
0.00012446
0.000124421
2.56879e-05
2.17606e-05
3.28946e-05
1.22649e-05
0.000124604
0.000124318
1.9724e-05
2.78552e-05
3.5621e-05
1.04899e-05
0.000124411
0.000124524
0.000124409
0.000124395
0.000124542
0.000124522
0.000124311
0.000124566
0.000124485
0.000123579
0.000124403
0.000124372
5.96458e-05
0.000123713
0.000124592
0.000124447
0.000124346
0.00012458
0.000124583
0.000124437
0.000124214
0.000124468
0.000124509
0.000124286
0.000124536
0.000123411
0.000124407
0.000124386
0.000124529
0.000101193
0.000124371
0.000123977
0.000124378
0.000124595
0.000124273
1.1614e-05
2.09726e-05
3.54298e-05
2.79216e-05
1.4048e-05
1.32056e-06
4.24467e-05
4.00525e-06
4.05603e-05
5.97108e-06
3.98391e-05
7.8662e-06
3.90587e-05
9.75368e-06
3.76514e-05
1.41024e-05
3.1433e-05
3.02501e-05
2.38522e-05
2.49205e-05
1.77313e-05
1.34442e-05
1.58709e-05
0.000124586
0.000102763
0.00012443
0.000124378
0.00012459
0.000124488
0.000124596
0.000124331
0.000124554
0.000124562
0.000124555
0.000124663
0.000124328
0.00012452
0.000124294
0.000124525
0.000124405
0.00012459
0.000124433
0.000124271
0.00012427
0.000124532
0.000124571
0.0001246
0.000124588
0.000124592
0.000124559
0.000124596
0.000124244
0.000124455
0.000124592
0.000124395
0.000124596
0.000124451
0.000124437
0.000124313
0.000124559
0.000124559
0.000123898
0.000121855
0.000123626
0.00012416
0.000124442
0.000124275
0.000124546
0.000124594
0.000124547
0.000124486
0.000124051
0.000124049
0.000124592
0.000124562
0.00012449
0.000124523
0.000124083
5.86917e-05
4.04313e-05
0.000124532
0.000124549
0.000123935
0.000123226
0.000124446
0.000124106
0.000123859
0.000124525
0.0001243
0.000124569
0.000124465
0.000124516
0.000119427
5.47766e-05
0.00012449
8.15321e-05
2.23486e-06
4.08064e-07
0.000124451
0.000124432
0.000124561
0.000124595
0.000124581
0.000124593
0.000124581
0.00012444
-1.57286e-06
0.000123324
0.000124471
0.000124539
0.000122466
0.000124591
0.00012459
0.000122744
0.000124553
0.000124563
0.000122167
0.000124587
7.67043e-05
0.000124589
0.000124012
0.000124553
0.00012285
0.000124146
0.000124157
0.000124489
0.00012459
0.000124547
0.000124589
0.000124603
0.000124447
0.000116584
)
;

boundaryField
{
    back
    {
        type            empty;
    }
    ingreso
    {
        type            zeroGradient;
    }
    salida
    {
        type            fixedValue;
        value           uniform 0;
    }
    front
    {
        type            empty;
    }
    defaultFaces
    {
        type            zeroGradient;
    }
}


// ************************************************************************* //
