/*--------------------------------*- C++ -*----------------------------------*\
  =========                 |
  \\      /  F ield         | OpenFOAM: The Open Source CFD Toolbox
   \\    /   O peration     | Website:  https://openfoam.org
    \\  /    A nd           | Version:  7
     \\/     M anipulation  |
\*---------------------------------------------------------------------------*/
FoamFile
{
    version     2.0;
    format      ascii;
    class       surfaceScalarField;
    location    "16.5";
    object      phi;
}
// * * * * * * * * * * * * * * * * * * * * * * * * * * * * * * * * * * * * * //

dimensions      [0 3 -1 0 0 0 0];

internalField   nonuniform List<scalar> 
1111
(
5.95906e-09
1.34475e-08
-1.5255e-08
-4.1515e-09
6.09304e-09
-1.14096e-08
1.12756e-08
-1.43747e-08
4.31942e-09
9.89895e-09
1.56354e-10
1.53815e-10
-1.68982e-10
-1.39163e-08
1.39315e-08
-1.38596e-08
1.36817e-08
3.31749e-10
-1.21868e-09
1.48273e-08
1.81989e-09
-3.89395e-09
9.32962e-09
-1.13687e-08
5.93304e-09
-6.43504e-09
-1.24205e-08
1.23901e-08
6.46544e-09
-5.11669e-08
-2.54061e-08
7.6573e-08
-8.06696e-09
7.4159e-09
6.7441e-09
3.77452e-09
3.79847e-10
-3.85296e-09
-3.01403e-10
1.56234e-08
-1.58353e-08
-2.23334e-08
2.25452e-08
-9.67031e-09
-8.43406e-09
9.05612e-09
9.04824e-09
-3.43947e-08
1.70622e-08
-3.19472e-08
4.92797e-08
9.627e-09
-1.83775e-09
-1.42243e-08
-3.8681e-09
3.74881e-09
-3.31228e-09
3.43156e-09
-3.71612e-09
1.29859e-08
2.01107e-09
-1.12809e-08
8.88531e-09
-2.0632e-09
-1.50028e-08
8.18071e-09
3.88579e-08
-3.21825e-08
-6.67549e-09
-1.90703e-08
-3.39189e-10
1.78235e-08
1.58596e-09
-2.38725e-10
3.74936e-09
-1.80752e-08
1.45646e-08
-6.3087e-08
-3.40225e-09
6.64893e-08
2.2162e-10
-1.41231e-09
-4.23962e-10
1.61465e-09
-9.57798e-10
-1.31406e-08
-2.72772e-10
-3.76064e-10
3.68041e-10
2.80795e-10
-9.96536e-09
-8.0586e-09
1.2238e-08
5.78598e-09
9.06626e-10
-2.24203e-09
-8.50305e-09
9.83845e-09
7.61894e-09
1.13203e-09
-8.34974e-09
-4.01228e-10
-2.6376e-09
-7.77037e-09
1.0542e-08
-1.34001e-10
1.11383e-08
-1.00471e-10
-2.15251e-09
-1.13772e-09
1.1003e-09
1.53459e-10
-1.16046e-10
-4.59718e-10
1.00625e-09
6.38214e-10
-1.18475e-09
-7.21598e-10
-4.94298e-11
7.66424e-10
4.60379e-12
4.45818e-11
-1.18248e-09
8.2793e-11
1.05511e-09
-1.57402e-11
-1.07739e-09
5.54926e-10
-1.79484e-08
-1.67681e-09
-6.30745e-10
7.72096e-11
-1.68061e-10
1.32106e-08
-1.32583e-08
3.79706e-09
-5.04266e-10
7.14742e-10
4.94116e-10
-7.04592e-10
-9.72295e-10
-2.70029e-09
2.08171e-09
1.59088e-09
-1.87768e-09
8.2415e-09
-1.02578e-08
-4.88846e-10
-2.42793e-10
1.00894e-10
-8.81239e-09
9.96803e-09
-9.2226e-09
1.15896e-08
-1.65335e-08
5.15477e-09
-2.10859e-10
1.26347e-10
-2.60694e-10
-3.54498e-10
3.33277e-10
9.9996e-10
-2.32936e-10
-6.00518e-08
7.45616e-08
-1.45098e-08
1.24145e-09
-4.47322e-10
-1.45107e-09
6.5694e-10
7.91071e-10
1.03045e-08
-1.35572e-08
2.46156e-09
-1.52639e-10
6.41755e-09
-7.69251e-09
1.4276e-09
-6.30943e-09
5.84668e-09
5.38101e-09
-4.91827e-09
-6.72914e-09
-2.51467e-09
2.32657e-09
6.91724e-09
1.30004e-11
-9.13201e-08
9.16835e-08
-3.76367e-10
-4.75968e-10
-8.98345e-08
9.02323e-08
7.81643e-11
8.30961e-08
-1.44389e-09
6.6582e-11
-8.17188e-08
-3.35058e-09
1.14149e-10
9.18491e-10
9.90714e-10
-6.67756e-10
4.156e-09
-1.96451e-09
3.2498e-09
-5.44128e-09
-1.22348e-09
1.10944e-09
-1.50248e-08
6.57661e-09
8.92541e-09
1.07877e-09
-9.63714e-09
-3.67045e-10
-6.09411e-09
1.24596e-08
1.55419e-09
-7.91972e-09
1.40616e-08
-3.7557e-09
3.1217e-09
-1.34276e-08
1.53312e-08
1.59703e-09
-1.49943e-09
5.3295e-11
-2.0152e-08
-7.8422e-09
2.79409e-08
1.3361e-08
-8.11177e-09
-2.29434e-09
7.48696e-09
-1.12867e-08
-1.87625e-10
3.74611e-10
-1.63806e-09
-3.75083e-08
-2.25435e-08
7.82934e-09
-2.09043e-10
3.96927e-09
-6.63268e-09
1.04899e-08
6.11085e-09
-7.68675e-10
4.50787e-10
6.23681e-10
-3.05793e-10
5.99133e-09
-4.53315e-09
3.49712e-09
-4.95529e-09
-7.58091e-10
-7.72237e-10
3.47846e-10
9.15599e-10
-8.82233e-10
-2.87387e-10
-1.32125e-09
1.14892e-09
-1.70559e-08
2.34389e-09
1.45086e-09
1.32611e-08
3.5043e-10
-9.02991e-10
-2.16116e-10
-3.42802e-09
-1.46079e-08
9.8008e-10
5.64781e-09
1.1513e-08
-5.24384e-09
-1.19169e-08
1.6291e-08
5.78813e-10
-1.57732e-08
-1.09655e-09
-8.56442e-10
6.17249e-10
6.89977e-10
-1.19653e-09
6.5869e-10
5.37843e-10
-6.91478e-09
-3.91195e-09
4.51731e-09
-5.08354e-10
7.17957e-10
-2.09604e-10
1.33029e-09
-1.47237e-08
-5.67734e-10
8.40925e-09
-9.7192e-09
-1.25765e-09
-1.48392e-09
1.23684e-08
4.40131e-09
-4.18926e-09
-1.25805e-08
3.85918e-10
6.86332e-09
-7.53149e-09
6.51486e-09
-2.08991e-09
-8.19968e-09
7.57908e-09
2.71051e-09
-1.79139e-09
5.96554e-10
-1.34131e-08
-3.20762e-10
-1.87591e-10
-6.98496e-10
1.43181e-09
-7.46246e-09
8.42256e-10
1.70502e-08
-1.60152e-09
-1.5646e-08
1.67807e-08
-1.13468e-09
1.16756e-08
1.38545e-08
-1.54537e-08
-1.00765e-08
-1.00694e-09
1.64972e-09
-6.42784e-10
1.89113e-09
-2.49786e-09
6.0673e-10
3.47016e-09
-5.21762e-09
1.74747e-09
2.21573e-09
-1.87135e-09
-3.44371e-10
-1.27178e-08
1.44849e-10
1.2573e-08
3.00006e-09
-7.84335e-10
8.79739e-09
-1.48474e-08
6.30162e-09
-7.15275e-09
1.56398e-10
4.1004e-09
-4.82278e-10
-3.37991e-09
3.53631e-09
-8.26553e-09
9.68396e-09
-1.41843e-09
-1.04621e-09
4.02172e-09
1.18049e-09
1.67728e-08
-1.45032e-08
-1.47848e-09
-5.14787e-09
5.02732e-09
-1.84397e-09
-2.8898e-10
7.3589e-09
-7.27752e-09
-8.13823e-11
7.07939e-09
4.29295e-09
4.0721e-10
-1.54438e-08
1.0151e-08
1.69684e-08
5.66851e-09
8.2742e-09
8.17258e-09
-6.66205e-09
4.91328e-10
-1.32091e-08
1.65433e-09
-3.84641e-10
-1.23089e-08
3.96454e-09
-4.28236e-10
1.48038e-08
-1.4225e-08
-4.235e-11
-1.23104e-09
-1.33934e-08
6.96084e-09
1.0104e-09
-7.1341e-11
-8.95686e-09
5.49948e-09
-3.21292e-08
-1.24954e-08
-2.1725e-09
1.27456e-09
1.35042e-08
1.1013e-08
-1.07124e-08
-1.38048e-08
1.71716e-08
-3.11077e-09
-1.40608e-08
1.85776e-09
3.76983e-09
-1.56624e-09
-1.03479e-09
-1.11386e-09
1.4514e-09
6.9724e-10
-3.38915e-10
4.77821e-10
4.84774e-10
6.35927e-08
-6.32639e-08
-3.28798e-10
6.38719e-08
-6.40005e-08
1.28576e-10
7.84855e-10
6.48541e-08
-6.55963e-08
7.42216e-10
6.41709e-08
6.83205e-10
-4.07781e-10
-6.64851e-08
8.88818e-10
-6.19492e-08
6.19744e-08
-2.5109e-11
1.42747e-09
-6.79126e-08
-6.212e-08
1.70781e-10
1.19443e-08
-1.30823e-09
1.96362e-09
-3.774e-09
3.11861e-09
4.93946e-10
-1.36584e-09
1.24954e-09
-9.25334e-10
1.56486e-09
-1.86038e-09
1.22086e-09
1.63424e-09
-1.80785e-09
5.48224e-10
-1.25526e-10
-3.28256e-09
3.19122e-09
-2.48597e-09
2.57731e-09
-1.03435e-09
-2.96404e-09
2.69016e-09
-4.00914e-09
-5.44228e-09
6.98754e-10
-8.21896e-10
1.56374e-09
1.25065e-09
-6.62141e-09
7.98607e-09
2.92829e-09
2.15167e-08
-4.3451e-09
-8.73941e-10
3.06821e-10
1.26587e-09
-9.99027e-09
-2.7518e-08
5.51449e-09
-4.55436e-09
-3.05898e-09
2.09886e-09
1.43625e-10
-2.68223e-12
6.25483e-10
-2.93691e-09
3.6012e-09
8.50548e-09
9.87885e-10
-7.16305e-10
2.28972e-09
-2.60777e-09
2.4509e-09
1.44337e-08
1.2925e-08
-2.63891e-08
3.20222e-08
6.00132e-09
-2.21325e-08
-1.02579e-08
1.77212e-08
-1.73601e-08
1.0652e-08
-3.58841e-10
1.0136e-10
-1.55037e-09
-2.02846e-09
-1.63431e-09
3.27143e-09
1.44089e-08
-4.72352e-10
-1.334e-08
3.12914e-10
-3.04167e-09
-2.35288e-10
1.49605e-08
1.71944e-08
1.3377e-08
7.87663e-10
-1.52714e-09
-1.26375e-08
-2.03925e-09
5.94824e-09
1.2068e-08
-9.52621e-10
-1.35582e-09
-3.49785e-09
2.73444e-09
3.95463e-09
2.3902e-09
1.39058e-08
4.1708e-09
-1.36753e-08
1.69227e-08
-1.53367e-09
2.97477e-09
-3.72421e-09
1.90429e-09
-4.45101e-09
1.2623e-08
-1.18881e-08
-1.35706e-08
5.4981e-10
8.56973e-09
-1.97155e-09
1.67866e-09
1.85664e-09
-8.94911e-09
5.05793e-10
-4.05211e-09
-5.89428e-09
1.19745e-08
-1.50293e-08
1.53903e-09
1.6483e-09
-2.0944e-09
1.60912e-08
-1.56451e-08
-9.58469e-10
1.38631e-08
2.44404e-09
-3.61217e-09
-1.36793e-08
7.23761e-09
-1.66631e-08
-7.93462e-09
6.35051e-09
5.8174e-09
1.40366e-08
-9.2621e-09
3.20326e-09
8.76935e-09
9.71642e-09
3.93816e-09
-4.05964e-09
2.12182e-08
-1.86151e-08
4.63451e-09
-9.7346e-09
2.33026e-09
5.05563e-09
1.33179e-08
-7.87596e-11
1.22387e-08
-1.31184e-08
-1.55842e-09
2.7623e-09
-1.99585e-09
7.91971e-10
1.05861e-08
-6.28307e-09
7.20996e-09
-1.01049e-08
1.4491e-09
-4.75449e-09
1.1011e-08
-1.15004e-08
-7.37587e-09
8.74823e-09
9.2137e-09
1.23577e-08
1.0249e-09
-1.34614e-08
1.80862e-09
8.93436e-10
-1.07178e-08
-6.7506e-09
1.00925e-08
-1.89106e-09
2.52372e-09
-8.46972e-09
4.61559e-09
-5.09402e-09
1.10843e-08
-3.50106e-09
-1.12271e-08
3.64383e-09
-4.54907e-09
1.08789e-08
2.23074e-09
1.25654e-09
-4.8547e-09
-1.74038e-08
1.03745e-08
1.1884e-08
9.35625e-10
-1.05403e-08
-9.68166e-09
1.53673e-08
1.18804e-08
2.68569e-09
-9.51046e-09
-1.31561e-08
-2.31295e-10
-1.23211e-08
3.49892e-10
-5.9484e-10
1.07869e-08
1.24327e-08
-8.02247e-09
1.59182e-08
-1.51916e-08
3.44424e-09
-5.23382e-10
1.58652e-09
1.2198e-08
-3.86753e-09
-1.22387e-08
-5.13915e-09
2.86389e-10
4.46812e-09
1.17708e-08
-7.56534e-09
8.59902e-10
-1.0206e-09
2.01657e-09
-2.5544e-09
5.931e-09
2.59391e-08
-1.03317e-09
-1.38298e-08
1.4863e-08
2.73954e-08
-2.18036e-08
2.16583e-08
1.92414e-08
-1.23698e-08
-2.42578e-09
1.47552e-08
1.10465e-10
-1.18275e-08
-3.8311e-10
-5.98985e-09
-2.0319e-09
2.48615e-09
1.77649e-09
3.26018e-10
-1.05279e-08
1.04212e-08
-2.19311e-10
1.80432e-09
-5.51587e-09
-1.03871e-08
1.00893e-08
-5.94637e-10
-1.01051e-08
-1.06672e-11
-1.02211e-08
-3.00372e-09
-1.15752e-08
2.33812e-09
7.7028e-09
5.07248e-09
3.94514e-10
-1.13088e-08
1.12403e-08
7.30978e-10
-8.30047e-09
5.28629e-09
-5.45558e-10
2.84839e-09
-3.5826e-09
-1.27781e-08
-1.34644e-08
1.28258e-08
-9.75146e-09
-1.56185e-08
9.92609e-09
9.00477e-09
8.08183e-10
2.48125e-09
-1.63111e-08
1.0585e-08
1.65106e-09
4.07008e-09
4.23292e-10
-6.7235e-10
-5.09031e-10
-4.00618e-09
2.78739e-09
-1.82287e-09
4.75615e-10
-5.54736e-10
7.91202e-11
-2.38244e-09
1.23384e-08
1.92444e-09
2.52814e-09
-1.38203e-09
-1.98277e-09
5.56675e-11
-2.67807e-09
-8.55077e-10
1.2522e-08
9.61027e-09
-5.91536e-10
7.18277e-09
-1.17335e-09
-5.41788e-09
-9.81596e-09
-4.90217e-09
3.74352e-10
1.01263e-10
4.28232e-09
1.45528e-09
-1.62779e-08
-7.20975e-10
-1.00388e-09
-1.89773e-09
6.95439e-10
2.46428e-09
6.27074e-08
-4.75163e-10
-6.22323e-08
6.24032e-08
3.84824e-10
-6.27881e-08
-1.40657e-08
1.88314e-10
1.44114e-08
-5.33999e-10
2.43109e-09
-2.16287e-09
2.90163e-09
1.78496e-09
-4.57119e-09
-6.80871e-10
-7.0691e-10
5.73897e-10
-1.72781e-10
7.02445e-10
-5.21945e-10
1.84787e-08
1.13066e-09
-1.5327e-08
-3.87073e-10
-1.97491e-09
1.19761e-08
2.19684e-09
1.75473e-09
4.77543e-09
-1.68196e-09
-7.93015e-08
-2.39442e-08
-4.84144e-09
1.54616e-08
2.36579e-09
-1.01801e-09
-3.48293e-09
-1.48457e-09
8.45088e-10
-7.16335e-10
-1.36043e-08
-3.27341e-10
1.39316e-08
-1.05017e-08
-6.68793e-09
1.0439e-08
-9.11088e-09
8.91535e-09
-3.04957e-10
2.04924e-09
1.30825e-08
-1.27613e-08
-3.21197e-10
8.20777e-10
4.15826e-11
9.28453e-09
1.12596e-09
-1.3268e-09
-4.62725e-10
-1.40898e-08
-5.21791e-10
-1.31285e-08
1.18017e-08
-1.1183e-08
-6.60326e-08
6.49248e-08
1.10783e-09
6.18589e-10
-6.21271e-10
1.14469e-08
-5.83594e-10
2.88575e-11
-1.73365e-09
2.74795e-09
-3.39984e-09
-1.34627e-08
-1.5719e-09
2.49748e-09
-4.47092e-09
-1.36813e-08
1.87426e-09
5.61261e-09
9.28395e-09
-8.69497e-09
-6.10013e-10
2.64194e-11
-9.38142e-09
-1.21741e-08
2.83207e-10
-6.22516e-08
4.43249e-10
6.18084e-08
8.07536e-10
6.33634e-08
-5.56479e-10
-6.808e-10
-1.41933e-08
-6.66021e-11
-6.33713e-08
6.34379e-08
2.34511e-10
-6.33989e-08
6.31644e-08
6.34062e-10
6.20026e-08
-2.74805e-10
-6.17278e-08
6.2293e-08
-2.90428e-10
-8.78452e-08
8.84929e-08
3.55615e-11
8.99398e-08
-9.0184e-08
-8.45479e-11
-8.67059e-08
-3.97074e-10
8.94666e-08
6.54123e-11
-8.5074e-08
-7.43173e-10
8.92955e-08
2.99714e-10
-5.50427e-10
1.92298e-09
8.81573e-08
-6.93565e-08
6.15284e-08
-6.15154e-08
-6.27276e-08
6.24999e-08
-2.06923e-10
-3.05173e-09
2.689e-09
-1.33126e-08
1.06304e-10
2.68047e-10
2.64709e-09
1.03936e-08
-1.24568e-08
3.84394e-08
-3.46297e-08
-1.61187e-08
1.42099e-08
-1.0225e-10
-2.12294e-10
3.74072e-10
1.02532e-09
-2.10269e-10
4.45248e-10
4.7093e-09
1.08587e-09
-3.89088e-09
-5.39453e-10
6.16664e-10
-4.38558e-10
-2.43482e-09
1.25869e-08
2.1863e-09
-1.43964e-08
-2.14396e-09
-3.90451e-09
5.69369e-09
1.11447e-09
-2.34364e-09
1.38916e-08
-1.17342e-09
-5.21511e-09
8.7094e-09
-7.72591e-09
-1.87517e-08
-1.27473e-08
7.67281e-09
5.62427e-09
-3.22114e-10
-5.18208e-10
3.32647e-09
1.42793e-08
1.5488e-09
-1.00073e-09
-5.06833e-10
5.3941e-10
-3.21557e-10
1.57942e-08
-4.52456e-10
-1.5669e-08
-6.00563e-09
-3.08009e-09
2.93357e-10
-2.72446e-10
4.61592e-09
-1.89216e-08
7.02065e-10
-1.77141e-09
-2.40367e-09
-2.09433e-09
1.5118e-08
-9.07927e-08
-2.92929e-10
9.1869e-08
1.9933e-10
-8.92653e-08
-6.35765e-10
9.07676e-08
-2.11897e-11
-9.12216e-08
-6.92676e-10
-1.86307e-09
1.59319e-08
9.18774e-08
-1.17152e-10
3.50701e-11
2.70825e-11
1.1695e-08
1.97054e-09
-1.05636e-08
-1.17241e-08
-5.45802e-09
8.43717e-09
1.40166e-09
-6.91054e-09
-6.6071e-09
9.13429e-09
-3.12212e-10
1.01333e-08
1.88842e-08
-1.7525e-08
2.99997e-09
-1.2284e-08
3.0453e-09
-7.00115e-08
3.9789e-09
-2.02229e-08
-1.23684e-08
-6.47225e-10
-5.70845e-09
-1.53426e-08
9.22357e-09
-1.50602e-08
6.28672e-10
5.35011e-10
-1.43497e-09
-1.59357e-08
1.64874e-08
1.04073e-08
-1.02931e-08
-5.55672e-09
1.4597e-08
-1.50877e-09
8.03295e-10
-1.61185e-09
6.97807e-10
1.18593e-08
3.49639e-09
7.10652e-08
-1.77978e-08
9.70021e-10
-1.44228e-08
-3.3738e-10
-3.79055e-10
-2.76212e-10
6.2525e-08
-6.25462e-08
-6.33362e-08
-6.35161e-08
2.57913e-10
4.62207e-11
-9.15257e-08
-6.28326e-08
6.47556e-08
6.49914e-08
-6.25329e-08
6.44409e-08
-6.24675e-08
6.36977e-08
-6.2552e-08
6.33007e-08
9.17578e-08
4.26004e-10
-6.56151e-09
7.49233e-08
-6.48654e-08
1.55897e-10
-1.55897e-10
2.47873e-09
-3.9074e-10
1.54539e-08
-1.82658e-10
1.82658e-10
5.49557e-10
1.21631e-09
1.42125e-08
1.2635e-08
-2.45999e-09
3.49219e-09
6.49108e-09
1.89487e-09
4.9862e-10
-3.58181e-10
-2.86084e-09
1.42726e-08
1.47885e-08
-4.3683e-09
1.1363e-08
2.99327e-10
2.32979e-10
3.04324e-09
-1.082e-09
-1.8398e-09
-5.80214e-09
-1.71079e-10
-5.27525e-10
1.51449e-08
4.14599e-10
2.03258e-10
1.73356e-08
-2.4916e-08
1.70061e-08
2.5293e-09
1.53916e-09
2.03283e-09
-3.46351e-09
1.88459e-08
-1.74152e-08
-1.64868e-10
1.07659e-09
-1.51156e-09
-7.90994e-08
-7.0868e-08
1.48991e-09
-1.28827e-09
7.53444e-10
2.25952e-08
1.79473e-08
-6.40087e-09
2.32346e-10
-4.53576e-09
-1.75567e-09
3.00955e-08
1.97152e-10
1.45459e-08
7.02092e-08
1.29555e-10
5.92788e-10
-2.46606e-10
-3.20042e-10
-3.93216e-09
2.32584e-08
-1.46709e-08
1.27822e-09
-1.33642e-08
-1.12147e-10
2.02244e-08
-2.78415e-08
9.07095e-10
2.70377e-09
-7.91283e-10
)
;

boundaryField
{
    back
    {
        type            empty;
        value           nonuniform 0();
    }
    ingreso
    {
        type            calculated;
        value           nonuniform List<scalar> 
14
(
-1.54286e-08
-1.54288e-08
-1.54288e-08
-1.54288e-08
-1.54286e-08
-1.54283e-08
-1.54288e-08
-1.54288e-08
-1.54286e-08
-1.54286e-08
-1.54288e-08
-1.5428e-08
-1.5428e-08
-1.54286e-08
)
;
    }
    salida
    {
        type            calculated;
        value           nonuniform List<scalar> 2(1.03246e-07 1.12754e-07);
    }
    front
    {
        type            empty;
        value           nonuniform 0();
    }
    defaultFaces
    {
        type            calculated;
        value           uniform 0;
    }
}


// ************************************************************************* //
