/*--------------------------------*- C++ -*----------------------------------*\
  =========                 |
  \\      /  F ield         | OpenFOAM: The Open Source CFD Toolbox
   \\    /   O peration     | Website:  https://openfoam.org
    \\  /    A nd           | Version:  7
     \\/     M anipulation  |
\*---------------------------------------------------------------------------*/
FoamFile
{
    version     2.0;
    format      ascii;
    class       volVectorField;
    location    "16.5";
    object      U;
}
// * * * * * * * * * * * * * * * * * * * * * * * * * * * * * * * * * * * * * //

dimensions      [0 1 -1 0 0 0 0];

internalField   nonuniform List<vector> 
591
(
(0.000808414 -5.0755e-05 1.22943e-18)
(0.00076128 -4.13263e-05 -6.61728e-19)
(0.000838532 -6.48444e-05 5.7738e-20)
(0.00082588 1.34906e-05 -1.48358e-19)
(0.000814444 2.03375e-05 2.23023e-19)
(0.000724873 -2.26085e-05 -1.38994e-19)
(0.000521331 -0.000393407 7.97229e-19)
(0.000799241 -1.03333e-05 2.0889e-18)
(0.00576399 0.00248973 9.89842e-19)
(0.000776743 -2.52568e-05 2.38312e-18)
(6.57434e-05 0.000180159 1.22168e-18)
(0.000885829 0.00125453 9.44241e-21)
(0.000779596 1.41492e-05 1.29373e-18)
(0.00154648 0.00233416 -7.89422e-19)
(0.000795643 4.30699e-05 -4.40085e-19)
(0.000155804 -0.000260049 2.68036e-22)
(0.0001292 0.000659411 7.07857e-19)
(0.000842596 1.85406e-05 -4.94512e-19)
(0.00201577 0.000393059 4.74841e-19)
(0.00133231 0.000308129 -2.48218e-19)
(0.000820253 2.43381e-05 3.70428e-19)
(0.00347786 0.00705356 -3.50477e-20)
(4.02753e-05 7.84072e-05 2.71772e-19)
(0.000813318 1.0323e-05 -4.45577e-19)
(2.00469e-05 -2.52633e-05 3.60346e-19)
(0.000767998 2.15331e-05 0)
(8.89144e-05 0.000478571 1.60576e-19)
(0.000507752 3.44606e-05 -1.7961e-19)
(0.000735997 6.42284e-05 1.14159e-18)
(0.000819629 -1.96632e-05 5.91535e-19)
(6.9874e-05 3.66758e-07 -1.0841e-24)
(5.01682e-05 -5.60652e-05 3.53658e-19)
(4.86638e-05 -4.76468e-06 -4.65849e-20)
(5.78151e-05 -8.56655e-06 0)
(6.45035e-05 -1.59213e-05 1.13408e-18)
(0.00115819 0.00013751 1.80826e-19)
(4.24612e-05 -7.97663e-06 4.49027e-20)
(0.000812337 1.4074e-05 4.83978e-23)
(3.79768e-05 5.40506e-05 2.67027e-19)
(7.54995e-05 -0.000156203 -8.57712e-19)
(0.000522863 -0.000164797 9.6014e-19)
(3.55031e-05 -1.04828e-05 4.56734e-20)
(0.000794136 -9.06694e-06 -1.54955e-18)
(0.000816055 4.74539e-06 -6.81077e-19)
(2.60389e-05 -1.25877e-05 0)
(6.53616e-05 1.21878e-05 8.5543e-20)
(0.00133679 0.00452588 8.95627e-19)
(8.79692e-05 2.50174e-05 8.67219e-20)
(0.000785476 4.98609e-05 0)
(0.000360305 -0.000123165 6.80897e-19)
(0.000366287 0.000281623 5.13993e-21)
(0.000381752 8.24282e-05 -1.00804e-18)
(0.00642857 0.0109499 -7.61519e-19)
(0.0062385 0.0108136 1.61102e-20)
(0.0056166 0.0103699 1.46823e-18)
(0.000804557 -4.75332e-05 0)
(7.64674e-05 3.99035e-05 0)
(0.000332098 3.42795e-05 9.48472e-24)
(7.4274e-05 1.68204e-05 -3.47903e-19)
(0.000859977 -8.33954e-06 0)
(0.000599554 2.63908e-05 3.18945e-19)
(0.000791318 1.25713e-05 2.16172e-18)
(0.000758191 -4.67737e-06 -5.43836e-19)
(0.000737548 1.63839e-05 -3.13922e-19)
(0.00170846 0.000541432 5.46474e-19)
(0.000788033 -5.35379e-06 -1.13593e-18)
(0.000797907 3.35085e-06 -5.1206e-19)
(9.72124e-05 5.76806e-06 -1.74098e-19)
(0.000716637 0.00230219 0)
(0.000809663 5.33682e-06 0)
(0.000726808 1.89432e-05 -1.36804e-18)
(4.57069e-05 2.09022e-05 0)
(0.000278436 0.00027761 3.28166e-19)
(5.3835e-05 -2.19793e-05 0)
(5.28061e-05 -7.58061e-06 1.60138e-19)
(3.75706e-05 -5.98874e-05 -3.38021e-20)
(0.000754111 5.19124e-05 2.43308e-19)
(5.2745e-05 1.50376e-05 0)
(0.00077361 6.57091e-05 4.4134e-19)
(0.00073967 0.000302236 2.11621e-19)
(0.000956421 6.06274e-05 -3.99744e-20)
(5.09121e-05 2.94197e-05 -4.53748e-20)
(7.1391e-06 -4.84728e-05 0)
(0.00041511 0.000226441 1.70883e-19)
(1.56125e-06 3.8193e-05 0)
(0.000735418 -7.10953e-06 -6.00653e-19)
(0.000541828 -0.000104928 0)
(7.75406e-05 3.62259e-06 -1.75204e-19)
(5.21984e-06 -6.4193e-05 0)
(0.000800171 0.000243711 -3.4274e-19)
(5.07711e-06 -3.03802e-05 0)
(0.000410163 0.000323405 -1.19051e-23)
(0.000502038 0.000118434 0)
(0.000790837 4.04046e-05 3.41877e-24)
(2.94408e-06 2.60399e-05 -4.23468e-20)
(0.00042663 1.56961e-05 1.7711e-18)
(0.00101059 7.66169e-05 4.17975e-20)
(0.00100326 2.97089e-05 6.4348e-22)
(0.000718001 0.00064498 2.69717e-19)
(3.07616e-06 7.15288e-05 0)
(8.79997e-06 -0.000127187 -3.13535e-19)
(2.20351e-05 -0.000220163 -1.10532e-18)
(-1.76338e-07 0.000110129 -5.98138e-19)
(0.00074484 -3.73986e-06 0)
(2.17194e-06 0.000138672 0)
(0.000783079 -3.30932e-06 2.17622e-18)
(0.000742496 3.67081e-05 1.49946e-18)
(0.000393552 -2.75642e-05 0)
(5.83123e-05 0.000235722 -8.97537e-19)
(-1.06988e-06 0.000219369 4.97704e-19)
(9.14311e-05 0.0004893 6.27731e-19)
(0.00028682 0.000125373 -9.37915e-19)
(0.000816725 3.67157e-06 1.35241e-19)
(0.000268979 1.91201e-06 5.33305e-19)
(1.95019e-06 5.11242e-05 0)
(5.11556e-05 0.00032545 -1.09273e-18)
(0.000310155 0.000329938 -1.62355e-19)
(8.80168e-06 -9.37144e-05 1.47164e-19)
(0.000637812 0.000771246 0)
(0.000353372 0.00039056 5.76733e-20)
(0.000800103 -9.58293e-07 1.03743e-18)
(0.000732383 -4.10042e-05 -2.6983e-18)
(8.30168e-06 -0.000168843 0)
(0.000770975 -1.21526e-05 -1.11768e-19)
(0.000316266 -4.662e-05 1.24857e-18)
(0.00272369 0.000814105 -3.36359e-19)
(-5.24445e-06 0.000170896 -6.14986e-19)
(-1.85841e-05 0.000213285 1.62433e-18)
(0.000874086 1.84515e-05 -3.90346e-20)
(7.58234e-05 -4.77201e-06 -7.52544e-19)
(0.000773404 3.94308e-05 -3.90186e-19)
(0.000926787 2.85201e-05 -4.11637e-20)
(7.23692e-05 0.000392632 -5.98849e-19)
(0.000462617 8.57766e-05 -4.95988e-19)
(6.05691e-05 -1.65613e-06 1.56807e-19)
(0.000820297 -1.97112e-05 -1.06198e-18)
(0.00166615 0.000215159 -1.14131e-18)
(-8.09643e-07 8.51189e-05 4.97967e-19)
(0.000784437 -2.18349e-06 -5.04987e-19)
(0.00087167 0.000537506 -7.88353e-20)
(0.000135122 0.00087914 0)
(0.000546398 6.95649e-05 0)
(0.000265456 6.54079e-05 -1.61347e-18)
(7.02866e-05 6.77627e-05 -1.3798e-18)
(3.70005e-05 2.57152e-05 0)
(0.00412371 0.00766794 -9.9715e-21)
(0.0041463 0.00768478 4.19019e-20)
(0.00435787 0.00787199 -1.78787e-20)
(0.0042061 0.00770252 0)
(0.00417711 0.00759326 4.69142e-19)
(0.00414568 0.00769489 -9.67587e-20)
(0.0041965 0.00803975 4.89476e-19)
(0.00412324 0.00750048 0)
(0.00418042 0.00853156 6.23403e-19)
(0.00418719 0.00750379 2.23883e-19)
(0.000799386 -6.85568e-06 -1.34659e-18)
(0.000736347 6.19947e-05 0)
(0.000219952 7.65155e-05 1.28223e-19)
(5.91392e-05 2.1685e-05 8.75482e-20)
(8.65301e-05 5.4466e-05 6.82847e-19)
(0.000116115 5.2302e-05 -3.43086e-19)
(0.000111563 1.68941e-05 0)
(5.79236e-05 8.61615e-06 8.21717e-20)
(0.000203917 0.000149092 0)
(0.000174434 6.30661e-05 -5.26451e-20)
(0.000331858 0.000232952 -5.1132e-21)
(6.28551e-05 5.154e-05 -4.39478e-19)
(0.000100696 3.77829e-05 -8.5602e-20)
(9.83556e-05 7.24237e-05 1.31738e-21)
(0.000245299 0.000371674 -6.68856e-19)
(0.000158711 0.00109665 0)
(4.85551e-05 6.00851e-05 3.44489e-19)
(0.000172419 0.00184916 0)
(0.000205454 0.000261787 7.07518e-19)
(4.6764e-05 -7.08232e-06 1.11775e-19)
(0.000460038 0.000172044 -1.73007e-19)
(0.000756412 2.78078e-05 -1.85902e-18)
(5.20385e-05 6.50919e-07 4.25168e-24)
(0.000158782 4.18681e-05 2.2546e-19)
(0.000237567 0.000113578 -9.03059e-20)
(0.000862394 0.000695552 3.36284e-19)
(0.000742282 0.00163299 -9.26416e-21)
(0.000418429 0.00135128 -9.47802e-21)
(0.00100213 0.000559162 0)
(0.000116514 -9.90558e-06 1.12343e-18)
(0.000129736 3.02915e-05 -4.45009e-20)
(0.000409741 -0.000223475 -1.14135e-18)
(0.000796874 3.8801e-05 0)
(0.000184811 3.75504e-05 3.64214e-19)
(0.000254727 0.00138485 0)
(0.00102225 0.000734057 -7.3314e-20)
(0.000809351 4.70526e-05 -1.83886e-19)
(9.49238e-05 -1.76744e-05 -3.01196e-19)
(0.00079799 0.000302849 -2.08928e-20)
(8.19285e-05 -2.31067e-05 -6.00973e-19)
(0.000226217 0.000185997 8.674e-20)
(0.000224513 0.000313117 -3.46411e-19)
(0.000860589 0.000235411 0)
(0.00077893 3.7782e-05 0)
(0.000258474 0.000155263 1.77573e-19)
(0.000235389 2.47929e-05 1.72065e-24)
(0.000185005 0.000215671 0)
(0.000282006 0.000637909 -5.57465e-21)
(0.000325826 2.32378e-05 0)
(0.000328086 0.000588962 0)
(0.000117169 9.50459e-05 -1.35228e-21)
(0.00080318 -1.57762e-05 -9.44373e-19)
(0.000823691 -2.34175e-05 7.7498e-19)
(0.000136433 7.25464e-05 -1.50476e-19)
(0.000931078 0.000150109 8.52723e-20)
(0.000816861 4.98952e-05 3.28537e-19)
(0.000785069 1.9504e-05 -2.94648e-19)
(0.000978711 0.000403124 0)
(0.00042146 0.000128969 6.27051e-19)
(0.000870431 0.00031554 2.10024e-20)
(0.000545504 0.000168134 0)
(0.000275134 0.000436166 4.1128e-19)
(0.000255846 0.000229337 -8.47617e-20)
(0.00108544 0.000383971 -7.85446e-19)
(0.000585976 0.00011991 -1.80056e-19)
(0.000781086 9.65253e-05 -7.39045e-21)
(0.000811617 2.75755e-05 9.35139e-20)
(0.000114705 -9.43704e-05 -1.98956e-18)
(0.000717658 0.000375194 2.20142e-19)
(0.000629666 7.25373e-05 2.31467e-20)
(0.000681035 0.00027176 1.484e-23)
(0.000702565 0.000442051 -4.11133e-19)
(0.000825669 3.72184e-05 8.90366e-20)
(7.83641e-05 9.22204e-05 0)
(0.000630397 0.000421419 -4.67619e-20)
(0.000185141 0.000113857 0)
(0.000362969 0.000509632 -2.6583e-19)
(0.000309074 0.000182533 0)
(0.000650798 0.000206443 3.56746e-19)
(0.000623285 0.000272141 -4.39098e-20)
(8.33889e-05 0.000110791 6.21385e-19)
(0.000870368 0.000120538 -1.60611e-18)
(6.68965e-05 2.88458e-05 2.58264e-19)
(0.0008776 6.17704e-05 -1.65883e-18)
(0.000782804 4.41007e-05 1.6005e-19)
(0.000783687 1.15006e-06 1.93495e-18)
(0.000785319 -1.79251e-06 -1.31038e-19)
(0.000684919 7.4379e-05 0)
(0.000839969 2.91127e-05 8.81596e-19)
(0.00091926 0.000241307 -4.28938e-19)
(0.000741104 7.36094e-05 -4.79361e-19)
(0.000754255 0.000230969 -8.8464e-20)
(0.000247744 -9.71076e-05 -2.08782e-18)
(0.000709171 9.51173e-05 8.91142e-19)
(0.000615909 0.000587517 0)
(0.000135797 -9.24471e-05 0)
(0.00117045 0.000463754 4.98472e-19)
(0.000815345 -0.000154246 -3.24427e-18)
(0.00126738 0.000414251 5.76017e-19)
(0.00126516 0.000715371 -6.40773e-20)
(0.000783741 5.81474e-05 -2.11549e-19)
(0.000805751 8.21193e-05 -1.40723e-18)
(0.000787926 5.06767e-05 1.57753e-18)
(0.000780379 -8.89773e-06 9.60916e-20)
(0.000656144 0.000341863 -4.42249e-20)
(0.000109916 0.000146064 1.89994e-23)
(0.000699448 -6.8072e-05 2.66234e-19)
(0.000259107 -0.000176936 -7.39538e-19)
(0.000596473 0.000193312 0)
(0.000666956 2.07501e-05 9.94416e-20)
(0.000647458 7.5472e-06 -3.82455e-19)
(0.00037413 0.000183317 3.94435e-20)
(0.000764697 0.000496775 -1.66162e-19)
(0.000157242 9.22143e-05 2.16249e-25)
(0.00079242 0.000386741 0)
(0.000948726 0.000321377 4.17549e-20)
(0.000715745 -0.000109414 -6.18934e-19)
(0.000334634 0.000114863 4.98918e-19)
(0.000877742 0.000416357 0)
(5.73321e-05 3.83631e-05 1.34268e-19)
(0.000462459 0.000273545 2.14826e-19)
(0.000435479 -7.88748e-05 -7.12161e-19)
(0.000191993 -0.000127257 -1.06342e-18)
(0.000779366 -9.00601e-06 -4.74784e-19)
(0.000800476 -0.000111473 -1.93335e-19)
(0.000559648 0.000723871 -1.17227e-18)
(0.000822638 5.69855e-05 -6.65542e-20)
(0.000775766 -6.67088e-05 1.26287e-18)
(0.000655524 9.89357e-05 2.28764e-20)
(0.000505362 0.00022106 -1.66362e-19)
(4.47271e-05 -2.64083e-05 -8.79467e-20)
(0.000205158 -2.09718e-05 2.41084e-18)
(3.45949e-05 9.51583e-07 -1.95602e-19)
(0.000767507 7.48976e-05 3.58461e-19)
(0.000626584 0.000142916 0)
(0.000208228 -4.46014e-05 -1.0521e-18)
(0.000133411 7.58764e-06 3.13727e-19)
(0.000140125 -3.16378e-05 -5.49796e-24)
(0.000776981 0.000118388 -3.19769e-19)
(0.000160961 -3.20941e-06 0)
(0.000562604 0.000244742 0)
(0.000111537 0.000341083 -3.64319e-19)
(0.000834816 0.000122792 2.07961e-18)
(2.82003e-05 1.79252e-06 0)
(0.000821623 1.31821e-05 0)
(5.66332e-05 -2.69357e-05 0)
(0.000819215 2.22692e-05 -4.39416e-21)
(0.000814794 -6.72417e-05 0)
(0.00409431 0.00757818 8.10737e-20)
(0.00432682 0.007521 1.46111e-19)
(0.000835372 9.82437e-06 0)
(0.000741917 -6.2657e-05 8.16337e-19)
(0.000154537 0.000139382 1.49821e-19)
(0.000863408 7.29202e-05 7.91422e-19)
(0.000135894 0.000116438 2.35365e-20)
(0.000739875 -6.12568e-05 6.2976e-19)
(4.22891e-05 1.32505e-05 0)
(3.94082e-05 -1.83993e-05 -4.50354e-20)
(0.000859492 6.49327e-05 -4.803e-19)
(5.00197e-05 -3.70543e-05 -6.7239e-19)
(0.000731728 0.000127183 -4.24553e-20)
(0.000167677 0.0001753 -1.88869e-19)
(0.000799471 1.00303e-05 0)
(0.00465076 0.00831258 1.25668e-21)
(0.000162178 0.000775542 3.35061e-19)
(0.0001399 -4.5566e-05 -9.17371e-19)
(7.81663e-05 -3.55626e-05 -1.17353e-18)
(0.0008065 2.07825e-05 1.90233e-20)
(0.000559864 0.000416423 0)
(0.000391313 0.000428742 -2.57078e-19)
(0.00011916 -4.7643e-05 1.18846e-18)
(0.000764996 4.76361e-06 7.73714e-20)
(5.07164e-05 2.35346e-06 4.08728e-19)
(0.000630387 -5.65597e-05 1.17674e-18)
(0.00079192 1.63312e-05 -6.02513e-19)
(9.56817e-05 -5.40742e-05 1.716e-18)
(0.000826969 7.0739e-06 -8.80695e-25)
(0.000781556 1.40013e-05 -3.78222e-20)
(0.000841874 6.45582e-05 0)
(0.000780932 4.27454e-05 0)
(0.00593248 0.00722165 2.61267e-19)
(3.61207e-05 3.29576e-06 -1.20038e-19)
(0.000190511 -7.01569e-05 7.75074e-19)
(0.000702862 0.0001183 -6.99503e-19)
(4.08871e-05 -1.06212e-06 2.02243e-19)
(0.000559667 -1.70554e-05 -7.26938e-19)
(0.000700146 2.72858e-06 1.54624e-18)
(0.000677828 0.00015369 -3.56951e-19)
(0.000794319 -3.95544e-05 3.56515e-19)
(0.00010269 -2.74392e-05 1.12068e-18)
(0.000735175 1.13084e-05 -3.20611e-19)
(0.000841401 6.03216e-05 0)
(0.000521223 0.000303331 4.22763e-20)
(0.000847036 3.15711e-05 -9.2314e-19)
(3.54479e-05 -2.62687e-06 9.14456e-19)
(0.000803792 2.03213e-05 9.44064e-19)
(0.000811675 -3.89338e-05 -9.67282e-19)
(0.000685999 2.01668e-05 -5.69724e-19)
(0.000477057 -4.23764e-05 -5.27916e-19)
(0.00424569 0.00748284 2.51771e-19)
(0.00411881 0.00749291 -2.94912e-19)
(0.00416266 0.00759743 2.21133e-19)
(0.00410742 0.007625 2.65091e-19)
(0.000837832 1.0499e-06 1.43402e-19)
(0.00446031 0.00756207 0)
(0.00441446 0.00758639 -3.63125e-19)
(5.29364e-05 -4.87368e-07 -1.00041e-18)
(0.00413996 0.00746365 -5.43497e-20)
(0.00414141 0.00750011 -2.64e-19)
(0.00602936 0.0105909 0)
(0.00649019 0.0107425 4.43802e-20)
(0.00600879 0.0105519 0)
(0.00648936 0.0107022 1.71795e-19)
(0.00598733 0.0105633 2.72996e-19)
(0.00647564 0.0106789 2.0892e-20)
(0.00592184 0.0106024 -7.85513e-19)
(0.00650438 0.0105834 1.7531e-20)
(0.00391491 0.00920769 -1.92022e-19)
(0.00410697 0.00740305 5.2262e-21)
(0.00413849 0.00753621 8.43258e-20)
(0.00414491 0.00754947 4.74676e-20)
(0.000845877 0.000175949 4.46227e-20)
(2.07364e-05 2.59546e-06 0)
(0.000638516 -0.000154367 0)
(0.000767497 2.97803e-05 0)
(0.00245059 0.0010579 4.31511e-21)
(0.000694885 -1.71296e-05 1.71823e-19)
(4.91853e-05 8.70335e-06 4.55942e-20)
(2.38586e-05 -3.35258e-05 1.6592e-18)
(0.000836508 2.92259e-05 0)
(3.41218e-05 1.68666e-05 -1.92527e-19)
(0.000146954 0.000233208 0)
(3.73288e-05 -1.30347e-06 0)
(3.10012e-05 -2.11794e-06 0)
(0.00079447 0.000133038 1.13603e-20)
(0.000828112 1.24412e-05 1.76577e-19)
(3.50725e-05 0.00033264 3.86396e-23)
(0.000162218 0.000278839 -1.84941e-18)
(0.000587785 0.000342309 -8.60528e-20)
(0.000878481 0.000123331 6.05248e-19)
(0.000723957 -0.000475922 6.66008e-19)
(0.000314567 0.0011039 0)
(0.000459424 0.000541256 2.72332e-18)
(0.0001005 0.00015323 -1.80521e-18)
(4.35944e-05 5.31399e-07 0)
(0.000842478 -1.29912e-05 3.58798e-20)
(2.20249e-05 4.57005e-05 1.65136e-18)
(0.000889628 2.60815e-05 2.7239e-19)
(9.166e-05 -0.000265368 3.79272e-18)
(0.000917837 4.34494e-05 -2.7027e-19)
(0.00145246 9.94824e-05 7.49884e-19)
(4.7758e-05 -1.32472e-05 8.29173e-20)
(4.61429e-05 9.53381e-06 -8.61878e-19)
(4.60703e-05 0.000162885 0)
(0.000876671 0.000100556 6.01202e-19)
(0.000478618 0.000372511 2.38099e-19)
(0.000832092 1.66625e-05 -3.89152e-20)
(0.000735015 -1.90596e-05 2.55728e-19)
(0.000680206 -0.000236869 0)
(0.00637915 0.0109319 -1.65385e-19)
(0.00648549 0.0109604 4.03112e-19)
(0.00617193 0.0107281 -6.14006e-19)
(0.00651921 0.0108396 -8.41712e-20)
(4.39285e-05 0.000122178 8.0296e-19)
(0.000878843 5.48843e-05 1.58052e-22)
(0.00652415 0.010969 -3.84735e-19)
(0.00631368 0.0108819 5.41851e-19)
(0.00609484 0.0106593 -4.1817e-19)
(0.00651366 0.0107856 -7.29459e-20)
(0.000100557 0.000590543 -2.02806e-20)
(0.000186581 -0.000172294 -7.97033e-19)
(0.000815778 -2.59037e-06 -7.61714e-19)
(0.000703148 0.000217574 0)
(0.000744532 -5.06903e-06 0)
(0.000184985 0.00039264 3.37657e-19)
(0.000602797 0.000571928 -5.43717e-19)
(2.31753e-05 -3.16748e-06 1.79148e-19)
(0.000211502 0.000463094 -7.41373e-19)
(0.000998454 0.00096592 -1.13157e-19)
(0.000719476 0.000173751 0)
(0.000765651 0.000164842 1.31392e-19)
(0.00636618 0.00587135 1.13454e-18)
(0.000686685 0.00113298 8.31284e-20)
(4.60159e-05 4.54882e-05 -7.47815e-20)
(0.000818593 4.97131e-05 0)
(0.000866827 1.57132e-05 -3.58419e-20)
(4.5205e-05 6.81555e-06 -1.9742e-19)
(3.90054e-05 8.27043e-06 1.93723e-19)
(0.000810808 1.67765e-05 5.35972e-19)
(0.000952499 0.000107767 6.61256e-19)
(0.000730984 6.05005e-05 0)
(0.00023818 -0.000270942 -4.00541e-19)
(0.000877667 0.000137305 3.89773e-19)
(4.25643e-05 -8.7407e-05 2.03903e-19)
(0.00147011 0.000375202 -2.58176e-18)
(0.000750862 1.08851e-06 0)
(0.000771852 0.000133174 3.76735e-19)
(9.03618e-05 0.000409028 0)
(0.00118302 0.0081835 4.63428e-19)
(0.000459764 0.000511555 -1.22786e-18)
(0.000530502 0.000961349 -1.84488e-19)
(0.000857731 2.65349e-05 -1.45489e-19)
(2.05072e-05 3.21165e-05 0)
(0.000904469 7.28126e-05 6.11478e-19)
(0.00410526 0.00758895 1.06949e-19)
(0.00411964 0.00742367 5.11737e-20)
(0.00447784 0.00750939 4.48557e-19)
(0.00444822 0.0076262 -3.10971e-19)
(0.00653519 0.0108972 8.42709e-20)
(0.00390619 0.00750089 9.09639e-21)
(0.00550353 0.00778349 -5.69511e-19)
(0.00411183 0.00769275 5.08921e-21)
(0.00519052 0.00782548 5.16809e-19)
(0.00409262 0.00763635 -5.12993e-20)
(0.00494109 0.00769392 0)
(0.00408971 0.00762459 -7.06051e-20)
(0.00470373 0.00755491 4.98071e-19)
(0.00409402 0.00761678 8.15614e-20)
(0.00453315 0.0074992 0)
(0.00410212 0.00754724 1.70202e-19)
(0.00416045 0.00760728 5.70787e-19)
(0.0044646 0.00761879 -5.61733e-19)
(0.00439302 0.00755623 3.68853e-19)
(0.00410306 0.00744008 3.18386e-19)
(0.00654339 0.0109633 -3.99407e-21)
(0.00413114 0.00757011 3.73863e-20)
(0.00654001 0.0109344 0)
(3.18412e-05 9.96698e-06 -1.90655e-19)
(0.00197351 0.00651178 2.29381e-19)
(0.000840934 -1.88136e-06 1.0933e-19)
(0.0008501 2.00778e-05 0)
(4.32888e-06 4.60018e-06 -4.00787e-19)
(0.000101261 -0.000206311 6.93851e-19)
(2.35714e-05 6.78644e-05 2.0937e-18)
(0.00080197 0.00019109 -9.04735e-20)
(0.000729946 7.97652e-06 7.01188e-19)
(4.94508e-06 -5.34384e-06 3.113e-19)
(2.86968e-05 -4.76053e-05 -1.85287e-18)
(0.000712288 1.5966e-05 1.62147e-19)
(0.000829769 0.000121381 -3.03955e-20)
(0.000725985 -4.60048e-06 1.47256e-19)
(0.000416453 0.000647499 0)
(0.000137718 -0.000151606 1.15648e-18)
(0.000833851 2.08405e-05 1.51361e-19)
(2.48813e-05 3.00608e-05 0)
(0.000101367 0.000562017 -6.33616e-19)
(0.000609648 0.000585222 1.31167e-18)
(0.000340477 0.00072461 0)
(0.000721411 -1.00536e-05 0)
(0.000733602 6.07926e-05 1.16365e-18)
(2.65465e-05 5.35819e-05 -3.52737e-18)
(2.30668e-05 1.15786e-05 3.75188e-19)
(0.000111813 0.000157634 0)
(6.72136e-05 -4.57964e-05 0)
(7.47541e-05 0.000124651 2.01645e-19)
(0.000895969 0.000175621 3.50731e-19)
(0.000786535 -3.51975e-05 -1.3755e-18)
(2.82824e-05 4.13105e-05 0)
(0.000614208 8.82612e-05 -6.02864e-20)
(0.000741089 2.16642e-05 -1.55399e-19)
(0.000839863 7.37423e-06 1.03752e-18)
(0.000251006 0.000546056 6.34641e-19)
(0.000822184 0.000137495 0)
(3.5401e-05 -3.44286e-05 5.40925e-19)
(4.78555e-06 -1.71241e-05 -3.21269e-19)
(0.00114494 -2.88631e-06 0)
(0.000935239 0.00216392 0)
(0.00105708 -0.000102428 0)
(0.000970621 0.000191122 4.2906e-19)
(0.000839167 -1.06341e-05 -2.79962e-19)
(0.00088714 0.000125839 -6.86121e-19)
(0.00073739 1.52322e-05 0)
(4.54197e-05 8.00319e-05 -1.72288e-19)
(0.00017264 0.000331381 1.08554e-18)
(0.000773413 4.1865e-05 3.06678e-23)
(0.00106327 0.000178868 -6.71945e-19)
(0.00107084 0.000117837 0)
(3.91422e-06 1.4727e-05 2.52084e-19)
(2.81264e-05 -2.27104e-05 -1.95127e-19)
(0.000712138 3.67386e-05 6.90674e-21)
(5.641e-05 -0.000117815 0)
(0.00101856 0.000256347 9.54538e-19)
(0.00501845 0.00973812 -2.8526e-19)
(0.00310837 0.00963122 1.28344e-18)
(9.68784e-05 -0.000123659 -1.92159e-19)
(9.20276e-05 -8.56451e-05 1.86746e-18)
(0.00118406 0.000221811 1.6787e-19)
(0.00127929 0.00104724 2.35003e-19)
(0.000825026 1.4541e-05 -7.29651e-19)
(0.000217068 0.000925853 -2.39842e-19)
(0.000772303 0.000872502 -2.19457e-19)
(0.000745984 -2.09599e-05 0)
(0.000109511 0.000720783 0)
(9.95575e-05 0.000287764 -5.12873e-23)
(0.000790881 -1.55989e-05 -2.57709e-23)
(0.000814596 -1.63625e-06 1.51724e-19)
(0.00261354 0.00200826 -1.23401e-18)
(0.00175741 0.00925763 -1.18023e-19)
(0.000794299 3.27687e-05 4.86299e-19)
(0.00635481 0.00403557 -1.76772e-19)
(0.00660902 0.0109121 -2.08483e-20)
(0.00465176 0.00808569 8.17663e-21)
(0.000789666 6.96606e-05 -2.15453e-18)
(0.000812918 4.05443e-05 -1.24216e-23)
(1.74936e-05 -1.36056e-05 -3.49426e-19)
(5.02362e-05 0.00010225 -3.50743e-19)
(8.75023e-05 0.000285527 8.79629e-19)
(1.74105e-05 2.19864e-05 4.92462e-19)
(9.26313e-05 0.000243013 3.71283e-19)
(0.000815077 4.66433e-05 0)
(0.00530485 0.00929868 1.08519e-20)
(0.00145228 0.000624644 -2.62813e-20)
(0.00082254 1.94761e-05 3.57085e-19)
(7.26473e-05 -9.87826e-05 0)
(0.00188599 0.000698498 5.47359e-19)
(1.52727e-05 1.23423e-05 -2.71292e-19)
(4.09423e-05 3.58892e-05 9.75911e-20)
(0.00131914 0.00140256 6.39994e-19)
(0.000788383 2.82898e-05 1.81653e-19)
(1.4782e-05 -3.91437e-06 -1.70924e-19)
(0.00203027 0.00153206 -1.05827e-18)
(0.000129923 0.000191113 -8.21411e-19)
(0.00391495 0.00848507 -1.09636e-18)
(1.31178e-05 3.40555e-06 8.85134e-20)
(0.000222276 -0.000404177 -1.24315e-18)
(7.07041e-05 -6.15447e-05 4.07365e-20)
(0.00146571 0.00093577 0)
(0.00100477 0.000144006 -4.40238e-22)
(0.000426799 0.00085585 -4.03784e-20)
(0.000818266 1.91918e-05 -2.3225e-19)
(8.59813e-05 0.000199115 7.37534e-19)
(5.96606e-05 -7.51531e-05 4.05749e-19)
(2.37038e-05 2.0277e-05 -9.51089e-20)
(4.15939e-05 0.000108115 -3.21555e-19)
(0.000192372 -0.000363125 -5.3949e-19)
(0.00323443 0.00341865 2.61841e-21)
)
;

boundaryField
{
    back
    {
        type            empty;
    }
    ingreso
    {
        type            fixedValue;
        value           uniform (0.0008 0 0);
    }
    salida
    {
        type            zeroGradient;
    }
    front
    {
        type            empty;
    }
    defaultFaces
    {
        type            noSlip;
    }
}


// ************************************************************************* //
