/*--------------------------------*- C++ -*----------------------------------*\
  =========                 |
  \\      /  F ield         | OpenFOAM: The Open Source CFD Toolbox
   \\    /   O peration     | Website:  https://openfoam.org
    \\  /    A nd           | Version:  7
     \\/     M anipulation  |
\*---------------------------------------------------------------------------*/
FoamFile
{
    version     2.0;
    format      ascii;
    class       volScalarField;
    location    "80.5";
    object      p;
}
// * * * * * * * * * * * * * * * * * * * * * * * * * * * * * * * * * * * * * //

dimensions      [0 2 -2 0 0 0 0];

internalField   nonuniform List<scalar> 
591
(
0.00012386
0.000123877
0.00012388
0.000123832
0.000123835
0.000123905
0.000123897
0.000123868
0.000116972
0.000123887
0.000124069
0.00012281
0.000123874
0.000119708
0.000123869
0.000123913
0.000123856
0.000123914
0.000121936
0.000123247
0.00012385
-3.52589e-06
0.000124065
0.000123852
0.000124022
0.000123874
0.00012398
0.000123983
0.000123887
0.000123894
0.000124042
0.000124017
0.000124036
0.000124036
0.000124038
0.000123361
0.000124033
0.000123853
0.00012406
0.000123978
0.000123936
0.000124029
0.000123882
0.000123904
0.000124026
0.000124047
0.000119213
0.000124051
0.000123886
0.000124003
0.000123998
0.00012403
2.39409e-05
3.05847e-05
4.78359e-05
0.000123879
0.000124055
0.000124045
0.000124048
0.00012386
0.000123947
0.000123878
0.000123875
0.000123925
0.000122548
0.000123878
0.000123881
0.000124045
0.000120703
0.000123892
0.000123886
0.000124052
0.000124024
0.000124031
0.000124037
0.000124013
0.000123855
0.000124049
0.000123857
0.000123794
0.000123633
0.000124054
0.000124013
0.000123995
0.000124061
0.000123868
0.000123956
0.000124043
0.000124006
0.000123758
0.000124018
0.000123967
0.000123982
0.00012386
0.000124059
0.000124015
0.000123563
0.000123462
0.000123627
0.000124065
0.000123971
0.000123893
0.00012407
0.000123829
0.000124071
0.000123879
0.000123876
0.000124018
0.000124063
0.000124066
0.000123955
0.000124042
0.000123892
0.000124046
0.000124063
0.000124046
0.000124
0.000123992
0.00012356
0.000123967
0.000123879
0.000123872
0.00012396
0.000123858
0.000124032
0.00012018
0.00012407
0.000124047
0.00012363
0.000124038
0.000123869
0.000123555
0.000124007
0.000124001
0.000124041
0.000123884
0.000122608
0.000124068
0.000123871
0.000123556
0.000123622
0.000123967
0.000124052
0.000124061
0.000124055
7.61601e-06
3.67829e-06
2.07099e-06
3.81557e-05
3.66959e-05
5.6607e-06
3.83067e-05
1.57393e-05
3.72884e-05
1.78059e-05
0.000123878
0.00012387
0.000124058
0.00012405
0.000124058
0.000124057
0.000124049
0.000124045
0.000124058
0.000124056
0.000124022
0.000124058
0.000124054
0.000124061
0.000124001
0.000123373
0.000124061
0.000122104
0.000124043
0.00012404
0.00012399
0.000123888
0.000124041
0.000124055
0.000124055
0.000123471
0.000122453
0.000123029
0.000123423
0.000124045
0.000124052
0.000123958
0.000123849
0.000124047
0.000122948
0.00012328
0.00012385
0.000124039
0.000123735
0.000124033
0.000124052
0.000124026
0.000123704
0.00012384
0.000124049
0.000124055
0.000124054
0.000123852
0.000124036
0.000123849
0.000124063
0.000123872
0.000123871
0.00012406
0.000123665
0.000123841
0.000123882
0.00012352
0.000124012
0.000123666
0.000123954
0.000123968
0.000124041
0.000123434
0.000123943
0.000123834
0.000123834
0.000124014
0.000123775
0.000123928
0.000123843
0.000123755
0.000123827
0.000124064
0.00012382
0.000124061
0.000123912
0.000124039
0.000123885
0.000123886
0.000124066
0.000123776
0.000124052
0.000123765
0.000123813
0.000123877
0.000123856
0.000123894
0.00012388
0.00012365
0.000123853
0.000123806
0.000124021
0.000123872
0.000123726
0.000124008
0.000123275
0.000123836
0.000123169
0.000123052
0.000123863
0.000123828
0.000123866
0.000123862
0.000123833
0.000124065
0.000123909
0.000123989
0.000123921
0.000123913
0.000123926
0.000124018
0.000123668
0.000124061
0.000123705
0.000123594
0.000123897
0.000124038
0.000123617
0.000124056
0.000123965
0.000123985
0.000124011
0.000123887
0.00012386
0.000123694
0.000123822
0.000123855
0.000123903
0.000123961
0.000124026
0.000124044
0.000124049
0.000123806
0.000123913
0.000124037
0.000124044
0.000124038
0.000123831
0.000124051
0.000123926
0.000124035
0.000123793
0.000124051
0.000123781
0.000124028
0.000123918
0.00012386
1.16403e-05
2.19098e-05
0.000123807
0.000123884
0.000124063
0.000123813
0.000124064
0.000123895
0.000124051
0.000124028
0.000123764
0.000124022
0.000123852
0.00012406
0.000123886
-2.09738e-07
0.000123754
0.000124033
0.000124029
0.000123724
0.000123876
0.000123919
0.000124023
0.00012378
0.000124044
0.000123929
0.000123879
0.000124021
0.000123828
0.000123754
0.000123789
0.000123888
4.74727e-05
0.000124039
0.000124021
0.000123878
0.000124046
0.000123957
0.0001239
0.000123882
0.000123868
0.000124032
0.000123895
0.000123801
0.000123928
0.000123806
0.000124045
0.000123813
0.000123871
0.000123906
0.000123991
1.98709e-05
2.73306e-05
3.42913e-05
9.63769e-06
0.000123853
3.30501e-05
2.59983e-05
0.000124042
1.90718e-05
1.70277e-05
3.81809e-05
7.57474e-06
3.99327e-05
5.60357e-06
4.08268e-05
3.68769e-06
4.2809e-05
1.875e-06
3.64016e-05
2.31954e-05
2.94466e-05
1.49902e-05
0.000123735
0.000124053
0.000123921
0.000123929
0.000120877
0.000123972
0.000124048
0.000124018
0.000123819
0.000124053
0.000124056
0.000124034
0.00012403
0.000123795
0.000123869
0.00012404
0.000124046
0.000123883
0.000123751
0.000123826
0.000123388
0.00012384
0.000124068
0.000124037
0.00012388
0.000124061
0.000123724
0.000123908
0.000123684
0.000122838
0.000124032
0.000124044
0.000124067
0.000123738
0.000123926
0.000123682
0.000123894
0.000123884
2.60399e-05
2.18749e-05
3.30318e-05
1.16163e-05
0.000124071
0.000123731
1.98174e-05
2.82514e-05
3.5598e-05
9.58639e-06
0.000123889
0.000123981
0.000123837
0.000123847
0.00012387
0.000124007
0.000123798
0.000124028
0.000123972
0.000123082
0.000123851
0.000123817
5.93571e-05
0.000123207
0.000124058
0.000123863
0.000123757
0.000124047
0.00012405
0.000123844
0.000123645
0.000123874
0.000123931
0.000123727
0.000124004
0.000122886
0.000123805
0.000123825
0.000124015
0.000100865
0.000123863
0.000123468
0.000123791
0.000124059
0.000123693
1.08942e-05
2.11122e-05
3.53629e-05
2.81878e-05
1.36599e-05
5.39993e-08
4.20754e-05
2.68892e-06
4.01532e-05
4.76082e-06
3.94119e-05
6.81336e-06
3.86193e-05
8.85583e-06
3.72853e-05
1.36719e-05
3.17239e-05
3.05804e-05
2.39345e-05
2.52744e-05
1.77629e-05
1.29363e-05
1.57054e-05
0.000124052
0.000102396
0.000123852
0.000123783
0.000124056
0.000123946
0.000124062
0.000123779
0.000123907
0.000124023
0.000124019
0.000124026
0.000123779
0.000123875
0.000123784
0.000123983
0.000123813
0.000124057
0.000123929
0.00012376
0.000123765
0.000123886
0.000123879
0.000124063
0.000124054
0.000124065
0.000124023
0.000124067
0.000123694
0.000123874
0.000124058
0.00012382
0.000123949
0.00012388
0.000123924
0.000123761
0.000124022
0.000124021
0.000123335
0.000121351
0.000123062
0.000123608
0.000123874
0.000123705
0.000123886
0.000124063
0.00012403
0.00012388
0.000123495
0.000123474
0.000124058
0.000124025
0.000123895
0.000123991
0.000123534
5.83084e-05
4.01157e-05
0.000123995
0.000124013
0.000123376
0.000122727
0.000123861
0.000123608
0.000123356
0.000123871
0.000123782
0.000124049
0.000123903
0.000123934
0.000118988
5.44703e-05
0.000123902
8.12353e-05
1.86121e-06
-3.81475e-07
0.00012387
0.000123839
0.000124024
0.000124066
0.000124057
0.000124057
0.000124059
0.000123856
-2.30769e-06
0.000122807
0.000123896
0.000124002
0.000121995
0.000124056
0.000124056
0.000122265
0.000123972
0.000124025
0.000121672
0.000124062
7.63331e-05
0.000124054
0.000123727
0.000124017
0.000122355
0.000123583
0.000123647
0.000123904
0.000124065
0.00012401
0.000124055
0.000124068
0.00012387
0.000116156
)
;

boundaryField
{
    back
    {
        type            empty;
    }
    ingreso
    {
        type            zeroGradient;
    }
    salida
    {
        type            fixedValue;
        value           uniform 0;
    }
    front
    {
        type            empty;
    }
    defaultFaces
    {
        type            zeroGradient;
    }
}


// ************************************************************************* //
