/*--------------------------------*- C++ -*----------------------------------*\
  =========                 |
  \\      /  F ield         | OpenFOAM: The Open Source CFD Toolbox
   \\    /   O peration     | Website:  https://openfoam.org
    \\  /    A nd           | Version:  7
     \\/     M anipulation  |
\*---------------------------------------------------------------------------*/
FoamFile
{
    version     2.0;
    format      ascii;
    class       volVectorField;
    location    "80.5";
    object      U;
}
// * * * * * * * * * * * * * * * * * * * * * * * * * * * * * * * * * * * * * //

dimensions      [0 1 -1 0 0 0 0];

internalField   nonuniform List<vector> 
591
(
(0.000832614 -1.75396e-05 1.21732e-18)
(0.000824811 -1.67477e-05 -6.63326e-19)
(0.000856731 3.043e-06 5.71136e-20)
(0.000862949 -1.62539e-05 -1.49075e-19)
(0.000848273 -2.35797e-06 2.25528e-19)
(0.000803004 -4.01216e-05 -1.39602e-19)
(0.000564695 -0.0002651 8.06189e-19)
(0.000803839 4.49113e-06 2.0954e-18)
(0.00573168 0.00250614 9.87873e-19)
(0.000805393 -9.44052e-06 2.45141e-18)
(4.77335e-05 0.000166161 1.21812e-18)
(0.000935459 0.00138391 9.40741e-21)
(0.000800275 4.36065e-06 1.32495e-18)
(0.00159976 0.00239847 -7.87459e-19)
(0.000803411 1.90708e-06 -4.45296e-19)
(5.49942e-05 -0.000183132 2.26151e-22)
(0.000138533 0.000675353 7.04878e-19)
(0.000818103 7.27859e-05 -4.97555e-19)
(0.00191436 0.000393605 4.73887e-19)
(0.00135972 0.000252954 -2.47077e-19)
(0.000832968 -7.30436e-06 3.73172e-19)
(0.00340005 0.00655945 -8.15139e-20)
(2.56196e-05 6.76718e-05 2.70913e-19)
(0.000835925 -2.04501e-05 -4.51341e-19)
(9.16446e-06 -1.40403e-05 3.58879e-19)
(0.000780806 3.65814e-05 0)
(9.37831e-05 0.000471495 1.59949e-19)
(0.000555475 5.45966e-06 -1.78816e-19)
(0.000757788 4.68299e-05 1.14935e-18)
(0.000809333 5.99984e-05 5.86999e-19)
(5.41893e-05 -4.43979e-06 -4.70364e-24)
(2.82147e-05 -4.3532e-05 3.52129e-19)
(3.32199e-05 -2.84952e-06 -4.64162e-20)
(4.22978e-05 -1.20956e-05 0)
(5.13015e-05 -1.30112e-05 1.13131e-18)
(0.00117368 0.000135011 1.79901e-19)
(2.81653e-05 -4.876e-06 4.47085e-20)
(0.000825578 2.11906e-06 3.13771e-23)
(2.55061e-05 4.15456e-05 2.65994e-19)
(4.35325e-06 -8.49684e-05 -8.54559e-19)
(0.000648527 -0.000201672 9.59455e-19)
(2.23065e-05 -5.98846e-06 4.54764e-20)
(0.000806534 7.47085e-06 -1.58069e-18)
(0.000831964 4.62454e-05 -6.91063e-19)
(1.48929e-05 -6.93039e-06 0)
(5.22121e-05 5.68144e-06 8.51758e-20)
(0.00134715 0.00450202 8.92901e-19)
(7.28523e-05 1.37722e-05 8.63511e-20)
(0.000801468 1.623e-05 0)
(0.000387556 -0.000218719 6.77319e-19)
(0.000385067 0.000270677 5.11853e-21)
(0.000397848 4.25927e-05 -1.00366e-18)
(0.00634785 0.0109411 -7.68468e-19)
(0.00622473 0.0107963 1.52863e-20)
(0.00561428 0.010379 1.45571e-18)
(0.000807632 3.63119e-05 0)
(6.46537e-05 2.86837e-05 0)
(0.000318117 6.26577e-06 1.88358e-23)
(6.00908e-05 8.94824e-06 -3.46413e-19)
(0.000813679 -7.73997e-06 0)
(0.000646927 2.8861e-05 3.1752e-19)
(0.000838805 1.67029e-05 2.20727e-18)
(0.000805177 3.40922e-05 -5.39232e-19)
(0.000799925 1.33392e-05 -3.15711e-19)
(0.00171237 0.000489016 5.42741e-19)
(0.000803608 2.19605e-05 -1.15095e-18)
(0.000832494 2.63824e-05 -5.24195e-19)
(7.65051e-05 -4.44329e-06 -1.73389e-19)
(0.000688838 0.00226137 0)
(0.00084092 4.30985e-05 0)
(0.00078397 1.95392e-05 -1.39276e-18)
(3.62299e-05 1.48898e-05 0)
(0.000290546 0.000267705 3.26807e-19)
(3.70537e-05 -1.6492e-05 0)
(3.86708e-05 -5.73002e-06 1.59451e-19)
(1.14268e-05 -4.06373e-05 -3.36624e-20)
(0.000795769 7.78955e-05 2.46881e-19)
(4.21212e-05 9.69216e-06 0)
(0.000805278 5.57577e-05 4.47421e-19)
(0.000776527 0.0002937 2.10701e-19)
(0.000963212 6.4623e-05 -3.97864e-20)
(4.10353e-05 2.15419e-05 -4.51802e-20)
(4.80716e-06 -1.80877e-05 0)
(0.000437354 0.000214238 1.70164e-19)
(2.80809e-06 1.99509e-05 0)
(0.000798896 4.12547e-05 -6.0662e-19)
(0.000623821 -0.000119197 0)
(6.14703e-05 -2.95859e-06 -1.74457e-19)
(2.28872e-06 -2.48457e-05 0)
(0.000831686 0.000240786 -3.41217e-19)
(3.03694e-06 -1.05738e-05 0)
(0.000426823 0.000321999 -1.31898e-23)
(0.000535786 0.000110253 0)
(0.000810991 4.35287e-05 -3.01645e-24)
(2.49163e-06 1.2359e-05 -4.21657e-20)
(0.000461536 -1.91429e-05 1.7633e-18)
(0.0010218 7.23479e-05 4.15965e-20)
(0.000811401 4.56169e-05 6.41292e-22)
(0.000742505 0.000658331 2.69467e-19)
(6.85967e-06 4.45118e-05 0)
(-2.67477e-06 -3.43716e-05 -3.12081e-19)
(-2.91113e-05 -5.54475e-05 -1.10133e-18)
(4.55196e-06 7.2049e-05 -5.96288e-19)
(0.000607906 -2.42587e-05 0)
(8.66073e-06 9.62006e-05 0)
(0.000815593 2.92194e-05 2.18205e-18)
(0.000793024 2.87822e-05 1.53408e-18)
(0.000435318 -9.38581e-05 0)
(4.07682e-05 0.000213949 -8.95261e-19)
(3.25614e-07 0.000161076 4.96705e-19)
(5.91201e-05 0.000401679 6.25179e-19)
(0.000307909 7.57574e-05 -9.37032e-19)
(0.000802372 2.01417e-05 1.37378e-19)
(0.000259636 -5.36025e-05 5.31153e-19)
(4.24352e-06 2.90138e-05 0)
(2.01406e-05 0.000278946 -1.09389e-18)
(0.000322696 0.000321735 -1.61684e-19)
(-3.45763e-07 -2.78717e-05 1.46523e-19)
(0.000670075 0.000811498 0)
(0.000370761 0.000385213 5.74345e-20)
(0.000819636 2.15317e-05 1.07026e-18)
(0.000799634 1.66746e-06 -2.72276e-18)
(5.39774e-06 -1.97192e-05 0)
(0.000666053 -3.67302e-05 -1.12299e-19)
(0.000322017 -0.000128716 1.24306e-18)
(0.00263585 0.000809719 -3.36421e-19)
(6.72973e-06 0.000125966 -6.13128e-19)
(6.61169e-06 0.000154378 1.61935e-18)
(0.000686805 2.37779e-05 -3.89831e-20)
(5.95692e-05 -1.48332e-05 -7.50065e-19)
(0.000808783 3.31795e-05 -3.86829e-19)
(0.000736121 2.66876e-05 -4.10414e-20)
(3.421e-05 0.000325128 -5.97007e-19)
(0.000492966 6.02849e-05 -4.93869e-19)
(4.55042e-05 -3.78098e-06 1.56132e-19)
(0.000837186 3.39703e-05 -1.09197e-18)
(0.00154534 0.000235938 -1.13696e-18)
(4.70052e-06 5.79949e-05 4.96366e-19)
(0.00081114 3.25371e-05 -4.98132e-19)
(0.000917861 0.000547334 -7.85005e-20)
(0.00014788 0.000785068 0)
(0.000589521 6.38986e-05 0)
(0.000276659 4.83909e-05 -1.60942e-18)
(6.12672e-05 5.57385e-05 -1.37391e-18)
(2.90965e-05 1.91927e-05 0)
(0.00424716 0.00740011 -1.01958e-20)
(0.00422544 0.00737201 3.16471e-20)
(0.00442764 0.00757479 -4.96543e-21)
(0.00420637 0.00773425 0)
(0.0041988 0.00760007 5.77166e-19)
(0.00424425 0.00740143 -9.19957e-20)
(0.00421007 0.0080418 4.844e-19)
(0.00428968 0.00742224 0)
(0.00420832 0.00853486 6.16692e-19)
(0.00432618 0.00745075 2.23896e-19)
(0.000828531 1.31282e-05 -1.37341e-18)
(0.000775289 5.65416e-05 0)
(0.000212238 4.67274e-05 1.27682e-19)
(4.78079e-05 1.42428e-05 8.71729e-20)
(7.54082e-05 4.17103e-05 6.79931e-19)
(0.000102634 3.73319e-05 -3.41625e-19)
(9.59691e-05 1.98834e-06 0)
(4.52996e-05 3.92172e-06 8.18262e-20)
(0.000206875 0.000127495 0)
(0.000163129 3.60069e-05 -5.24239e-20)
(0.000345363 0.000219078 -5.09195e-21)
(5.37232e-05 4.04251e-05 -4.37597e-19)
(8.74353e-05 2.38735e-05 -8.5236e-20)
(8.79972e-05 5.82968e-05 1.31178e-21)
(0.00025826 0.000363421 -6.66097e-19)
(0.000108472 0.000996082 0)
(4.03772e-05 5.01072e-05 3.43017e-19)
(0.000198504 0.00174745 0)
(0.00020819 0.000250196 7.04578e-19)
(3.46943e-05 -3.38376e-06 1.1148e-19)
(0.000487869 0.000162068 -1.72281e-19)
(0.000767087 2.42866e-05 -1.92389e-18)
(3.99233e-05 -1.5039e-06 4.66209e-24)
(0.00014454 1.94284e-05 2.24562e-19)
(0.000245158 8.67704e-05 -8.99217e-20)
(0.000881832 0.00070017 3.34903e-19)
(0.000726158 0.00163445 -9.23439e-21)
(0.000399672 0.00142124 -9.3916e-21)
(0.00102693 0.000546354 0)
(9.70211e-05 -1.80172e-05 1.11856e-18)
(0.000111666 1.09205e-05 -4.43014e-20)
(0.000463321 -0.000282851 -1.13605e-18)
(0.000819157 4.14084e-05 0)
(0.000178957 -6.25995e-06 3.63259e-19)
(0.000302038 0.00130371 0)
(0.00108511 0.000775171 -7.30112e-20)
(0.000827139 3.13594e-05 -1.86532e-19)
(7.1951e-05 -2.24874e-05 -2.99939e-19)
(0.000834706 0.000317293 -2.08021e-20)
(5.11645e-05 -2.13131e-05 -5.99414e-19)
(0.000226862 0.000171258 8.63777e-20)
(0.00023074 0.000306961 -3.44971e-19)
(0.000891082 0.000250161 0)
(0.000820214 5.42014e-05 0)
(0.00026497 0.000130218 1.76826e-19)
(0.000233309 -6.48932e-06 5.17555e-24)
(0.000184639 0.00020239 0)
(0.000300768 0.000650179 -5.55638e-21)
(0.000353744 -1.58638e-05 0)
(0.000377891 0.000598872 0)
(0.000106503 7.81892e-05 -1.34653e-21)
(0.000810507 3.06408e-05 -9.53987e-19)
(0.000806604 1.93315e-05 7.97841e-19)
(0.00012627 5.27211e-05 -1.49837e-19)
(0.000964629 0.00014767 8.50353e-20)
(0.000839206 4.11406e-05 3.33351e-19)
(0.000819564 3.05805e-05 -2.94077e-19)
(0.00102625 0.000417367 0)
(0.000442631 0.000114973 6.24356e-19)
(0.000904676 0.000321921 2.09112e-20)
(0.00058394 0.000153487 0)
(0.000272832 0.000446283 4.09595e-19)
(0.00026223 0.000213268 -8.44078e-20)
(0.00109866 0.000380836 -7.82035e-19)
(0.000631074 0.000103227 -1.79268e-19)
(0.00081522 7.40631e-05 -7.45698e-21)
(0.000843308 2.71284e-05 9.40017e-20)
(6.67718e-05 -8.67256e-05 -1.98112e-18)
(0.000742321 0.000380613 2.19209e-19)
(0.000675931 6.58504e-05 2.30607e-20)
(0.000711251 0.000279359 1.60969e-23)
(0.000734445 0.000460669 -4.09641e-19)
(0.00084921 2.36089e-05 9.0692e-20)
(7.00346e-05 7.61397e-05 0)
(0.000659817 0.00042199 -4.65863e-20)
(0.000182741 8.9989e-05 0)
(0.000374546 0.000501746 -2.64808e-19)
(0.00031075 0.000163294 0)
(0.000679284 0.000205286 3.55181e-19)
(0.000654159 0.000259579 -4.37196e-20)
(8.04386e-05 0.000100984 6.19077e-19)
(0.000879568 9.52382e-05 -1.63267e-18)
(5.5056e-05 2.00344e-05 2.57157e-19)
(0.000891729 7.1894e-05 -1.68597e-18)
(0.000844271 8.98304e-05 1.62994e-19)
(0.000811896 3.46959e-05 1.90856e-18)
(0.000819381 3.37478e-05 -1.32832e-19)
(0.000740832 7.15145e-05 0)
(0.000805784 2.25446e-05 8.95497e-19)
(0.000965889 0.000233089 -4.27043e-19)
(0.000779982 9.70264e-05 -4.83672e-19)
(0.000780776 0.000234399 -8.81106e-20)
(0.000205302 -0.000178879 -2.07688e-18)
(0.000754084 8.01429e-05 8.8742e-19)
(0.000641795 0.000594231 0)
(7.61136e-05 -0.000119823 0)
(0.00122577 0.000473172 4.97222e-19)
(0.000592347 -5.98805e-05 -3.26965e-18)
(0.0013495 0.000414816 5.76421e-19)
(0.0012482 0.000717934 -6.38858e-20)
(0.000814481 3.20963e-05 -2.12432e-19)
(0.000839516 6.69398e-05 -1.42642e-18)
(0.000815039 2.72314e-05 1.58755e-18)
(0.000816812 2.47042e-05 9.78089e-20)
(0.000672054 0.000353132 -4.40348e-20)
(0.000100343 0.000118821 7.01323e-24)
(0.000757556 -3.51756e-05 2.65019e-19)
(0.000212838 -0.000263778 -7.3178e-19)
(0.000630253 0.000184672 0)
(0.000716167 4.85857e-05 9.9026e-20)
(0.000705212 9.63328e-06 -3.80758e-19)
(0.000392349 0.000167616 3.93313e-20)
(0.000809575 0.000508342 -1.65455e-19)
(0.000147005 7.06843e-05 3.53878e-25)
(0.000814982 0.000413028 0)
(0.000983906 0.000316803 4.15715e-20)
(0.000762559 -7.00335e-05 -6.16011e-19)
(0.000351183 0.000100569 4.97751e-19)
(0.000904426 0.000427078 0)
(4.70783e-05 2.93165e-05 1.33693e-19)
(0.000488383 0.000265086 2.13923e-19)
(0.000525438 -0.00016069 -7.09381e-19)
(0.000115019 -0.000168528 -1.05577e-18)
(0.000825657 3.60811e-05 -4.86705e-19)
(0.000769203 -7.71659e-05 -1.94321e-19)
(0.000547619 0.000729719 -1.17424e-18)
(0.000851149 4.71672e-05 -6.74437e-20)
(0.000601008 -1.76239e-05 1.28039e-18)
(0.00071031 9.95947e-05 2.27748e-20)
(0.000536952 0.00020703 -1.65663e-19)
(2.79952e-05 -2.04619e-05 -8.7572e-20)
(0.000160238 -5.10054e-05 2.40572e-18)
(1.56005e-05 6.42558e-07 -1.94819e-19)
(0.000834495 0.000116237 3.63695e-19)
(0.0006713 0.00013561 0)
(0.000179828 -9.67842e-05 -1.04801e-18)
(0.000117041 -2.23532e-05 3.12815e-19)
(0.000101639 -3.82823e-05 1.33147e-23)
(0.000803245 0.000105393 -3.19218e-19)
(0.000149648 -1.71492e-05 0)
(0.000589507 0.000240487 0)
(0.000111318 0.000326654 -3.62806e-19)
(0.000864481 0.00010092 2.10397e-18)
(1.2704e-05 9.29596e-07 0)
(0.000883092 5.31922e-05 0)
(3.99499e-05 -2.54897e-05 0)
(0.000815405 4.76182e-05 -4.46745e-21)
(0.000787265 -3.90409e-05 0)
(0.00426014 0.00740657 8.06942e-20)
(0.00436206 0.00748666 1.43636e-19)
(0.000843664 -1.04146e-05 0)
(0.000791769 -4.26859e-05 8.12065e-19)
(0.000152206 0.000120764 1.49189e-19)
(0.000856903 6.74493e-05 8.07679e-19)
(0.000128463 9.77812e-05 2.34364e-20)
(0.000784681 -2.58729e-05 6.24272e-19)
(3.29942e-05 8.86637e-06 0)
(2.57418e-05 -1.26274e-05 -4.48416e-20)
(0.000901322 4.85997e-05 -4.86483e-19)
(2.95423e-05 -3.0476e-05 -6.69707e-19)
(0.00076159 0.00012356 -4.23178e-20)
(0.000168707 0.000158554 -1.88075e-19)
(0.000814599 2.98589e-05 0)
(0.00468248 0.00815358 9.0038e-22)
(0.000185779 0.000789766 3.33441e-19)
(0.000109276 -6.24996e-05 -9.14398e-19)
(5.62456e-05 -3.49917e-05 -1.1686e-18)
(0.00062073 1.34181e-05 1.89816e-20)
(0.000582741 0.000406459 0)
(0.000421444 0.000444141 -2.56299e-19)
(7.63116e-05 -6.19772e-05 1.18354e-18)
(0.000579626 -2.09516e-07 7.69368e-20)
(3.97778e-05 1.50584e-06 4.07036e-19)
(0.000710487 -4.83768e-05 1.17145e-18)
(0.000811932 3.27334e-05 -6.02692e-19)
(5.82666e-05 -5.48304e-05 1.70911e-18)
(0.000842153 -3.13723e-05 -5.89241e-24)
(0.000597192 6.66616e-06 -3.76077e-20)
(0.000871127 7.08468e-05 0)
(0.00084249 4.37937e-05 0)
(0.0059173 0.00724204 2.59672e-19)
(1.61675e-05 -2.59521e-06 -1.1957e-19)
(0.0001134 -0.000107696 7.72897e-19)
(0.000729661 0.000116424 -6.96337e-19)
(1.90203e-05 9.74562e-08 2.01498e-19)
(0.000633519 -3.61229e-05 -7.23706e-19)
(0.000747807 3.64103e-05 1.55781e-18)
(0.000708365 0.00015904 -3.55388e-19)
(0.000807618 -1.23072e-05 3.60794e-19)
(7.078e-05 -3.52799e-05 1.11583e-18)
(0.000800644 6.65665e-06 -3.22643e-19)
(0.000869396 3.98367e-05 0)
(0.000544696 0.000302857 4.20961e-20)
(0.00086128 5.08876e-05 -9.46922e-19)
(1.68249e-05 2.64023e-06 9.11234e-19)
(0.000856474 4.49468e-05 9.65584e-19)
(0.000859515 1.52875e-05 -9.64507e-19)
(0.000756457 -1.73274e-06 -5.6909e-19)
(0.000531046 -7.68808e-05 -5.25569e-19)
(0.00432911 0.00745293 2.47555e-19)
(0.00422277 0.00752913 -2.78827e-19)
(0.00422119 0.00758677 2.66728e-19)
(0.00425591 0.00741064 1.9795e-19)
(0.000844925 -3.17849e-05 1.44227e-19)
(0.00447618 0.00751314 0)
(0.00440345 0.00751721 -3.86949e-19)
(2.63993e-05 -1.26245e-07 -9.98017e-19)
(0.00417053 0.0074692 -6.33615e-20)
(0.0041459 0.00743235 -2.21492e-19)
(0.00602944 0.0106057 0)
(0.00654045 0.0111874 3.71376e-20)
(0.00600938 0.0105754 0)
(0.00655615 0.011211 1.30855e-19)
(0.00599672 0.0105994 2.69651e-19)
(0.00659284 0.0112278 1.24576e-20)
(0.00593544 0.0106122 -7.76666e-19)
(0.0066231 0.0111468 8.14766e-21)
(0.00390366 0.00919873 -1.90815e-19)
(0.00418678 0.00748845 3.87453e-21)
(0.00423778 0.00755203 7.93552e-20)
(0.00415039 0.00743464 4.11996e-20)
(0.000885012 0.000193641 4.46677e-20)
(8.92554e-06 1.26247e-06 0)
(0.0007119 -0.000114631 0)
(0.000660621 5.34773e-05 0)
(0.00244378 0.00111275 4.2317e-21)
(0.000756629 -3.13426e-05 1.72556e-19)
(3.83472e-05 5.16325e-06 4.53994e-20)
(8.40263e-06 -2.51876e-05 1.65285e-18)
(0.000854773 1.12293e-05 0)
(2.64234e-05 1.18042e-05 -1.91701e-19)
(0.000139661 0.000220614 0)
(1.52935e-05 -9.42416e-07 0)
(1.22499e-05 -1.18159e-06 0)
(0.000828119 0.000143028 1.13733e-20)
(0.000810994 -1.80752e-05 1.79463e-19)
(3.72815e-05 0.00026737 -1.24514e-23)
(0.00015718 0.00027083 -1.84171e-18)
(0.000605892 0.00032795 -8.56893e-20)
(0.0008982 0.00011016 6.01205e-19)
(0.00063831 -0.000191512 6.73772e-19)
(0.000361391 0.0011112 0)
(0.000475959 0.00057536 2.71496e-18)
(8.95274e-05 0.000143181 -1.80291e-18)
(1.93398e-05 -6.52139e-08 0)
(0.000822043 -6.06295e-05 3.63944e-20)
(1.54274e-05 3.43923e-05 1.64428e-18)
(0.000897757 3.36177e-05 2.71128e-19)
(-2.42823e-05 3.39193e-05 3.80944e-18)
(0.000928877 4.04342e-05 -2.68996e-19)
(0.00134307 0.00015103 7.47115e-19)
(3.2864e-05 -1.02764e-05 8.256e-20)
(3.44429e-05 3.1962e-06 -8.58995e-19)
(5.07806e-05 0.000139732 0)
(0.000913347 8.33499e-05 5.98455e-19)
(0.000495498 0.000367698 2.37116e-19)
(0.000644902 1.76704e-05 -3.89073e-20)
(0.000781315 -1.32652e-06 2.57348e-19)
(0.000734383 -0.000166446 0)
(0.00632059 0.0108964 -1.68123e-19)
(0.00637897 0.0109738 4.05818e-19)
(0.00616027 0.0107309 -6.18373e-19)
(0.00650148 0.0111327 -8.09777e-20)
(3.34175e-05 0.000116668 8.00439e-19)
(0.000923777 6.04563e-05 1.45215e-22)
(0.00641157 0.0110063 -3.86444e-19)
(0.00628161 0.0108463 5.48274e-19)
(0.00608032 0.0106726 -4.16753e-19)
(0.00652198 0.0111651 -6.81381e-20)
(7.97268e-05 0.000500804 -2.01792e-20)
(6.94281e-05 -0.000199986 -7.92763e-19)
(0.000660337 -2.06639e-05 -7.65523e-19)
(0.000726415 0.000219949 0)
(0.000800213 2.80876e-07 0)
(0.000187188 0.000389128 3.36261e-19)
(0.000599672 0.00051278 -5.41809e-19)
(8.22879e-06 -1.41587e-06 1.78374e-19)
(0.000200476 0.000467319 -7.38315e-19)
(0.00101454 0.000975436 -1.12678e-19)
(0.000746746 0.000165895 0)
(0.000790304 0.000184438 1.31006e-19)
(0.0063533 0.00588153 1.1314e-18)
(0.000738737 0.00112915 8.26532e-20)
(3.7599e-05 3.68333e-05 -7.446e-20)
(0.000809064 1.15443e-05 0)
(0.000873494 2.52277e-05 -3.56867e-20)
(3.28004e-05 2.84292e-06 -1.96695e-19)
(2.84435e-05 4.22915e-06 1.92973e-19)
(0.000833781 1.66521e-05 5.37156e-19)
(0.00097616 0.000111147 6.58246e-19)
(0.000555186 4.09428e-05 0)
(0.000222883 -0.000291245 -3.98071e-19)
(0.000916978 0.000145339 3.89552e-19)
(8.90562e-06 -5.6594e-05 2.03094e-19)
(0.00145222 0.000442644 -2.58155e-18)
(0.000583394 -9.53803e-06 0)
(0.000794223 0.000143327 3.75427e-19)
(9.49323e-05 0.000392619 0)
(0.00118824 0.00816112 4.62109e-19)
(0.000492726 0.000499065 -1.22442e-18)
(0.000540902 0.0010128 -1.83735e-19)
(0.000883445 1.68784e-05 -1.4604e-19)
(1.23465e-05 2.43329e-05 0)
(0.000951843 7.75253e-05 6.11606e-19)
(0.00410635 0.00739547 8.1423e-20)
(0.00417137 0.00747372 4.73092e-20)
(0.00449999 0.0075158 4.54019e-19)
(0.00444505 0.00754177 -3.29054e-19)
(0.00647541 0.0111097 8.10551e-20)
(0.00391483 0.00714609 -9.66151e-22)
(0.00550813 0.00779853 -5.6469e-19)
(0.00409788 0.0073717 5.21861e-21)
(0.00518886 0.00785819 5.11623e-19)
(0.00407968 0.00734015 -4.87152e-20)
(0.00495395 0.00771758 0)
(0.00408499 0.00736454 -8.56509e-20)
(0.00474261 0.00758859 4.92467e-19)
(0.00409825 0.00737614 8.75097e-20)
(0.0045752 0.00752822 0)
(0.0042837 0.0074208 1.39742e-19)
(0.00423937 0.00759833 5.8019e-19)
(0.00446755 0.00752721 -5.54235e-19)
(0.0043877 0.00750469 3.71319e-19)
(0.00422789 0.00752507 3.22836e-19)
(0.00643076 0.011043 -4.976e-21)
(0.0041178 0.00740158 3.11583e-20)
(0.00645887 0.0110729 0)
(2.29575e-05 5.40758e-06 -1.89839e-19)
(0.00200008 0.00654456 2.28224e-19)
(0.000838428 -5.29868e-05 1.09858e-19)
(0.000855338 6.80467e-06 0)
(1.30216e-06 1.06302e-06 -3.99068e-19)
(-1.62042e-05 -0.000117214 6.91734e-19)
(2.40466e-05 5.54091e-05 2.08877e-18)
(0.000830827 0.000182022 -9.00615e-20)
(0.000800851 8.80181e-06 7.06314e-19)
(9.89408e-07 -7.56734e-07 3.09954e-19)
(1.70094e-05 -3.22945e-05 -1.84544e-18)
(0.000763186 2.71588e-05 1.63134e-19)
(0.000869197 0.000124017 -3.07953e-20)
(0.000800706 -8.23489e-06 1.48119e-19)
(0.000420543 0.000680062 0)
(3.20515e-05 -0.000143215 1.15131e-18)
(0.000867253 5.77787e-06 1.52502e-19)
(1.93654e-05 2.3016e-05 0)
(0.000116819 0.000558236 -6.31187e-19)
(0.000609889 0.000590756 1.31782e-18)
(0.000327382 0.000754068 0)
(0.000801651 -1.60817e-05 0)
(0.000801362 2.93835e-06 1.17548e-18)
(1.67771e-05 4.78694e-05 -3.51457e-18)
(1.58675e-05 6.70518e-06 3.73581e-19)
(0.000116353 0.000142795 0)
(4.1915e-05 -4.02701e-05 0)
(6.09418e-05 0.000110743 2.00977e-19)
(0.000938524 0.000189249 3.50394e-19)
(0.000800186 1.51027e-05 -1.39906e-18)
(2.22036e-05 3.2117e-05 0)
(0.000442662 7.1234e-06 -6.04236e-20)
(0.000800822 3.75109e-05 -1.5633e-19)
(0.000844625 3.95108e-05 1.06413e-18)
(0.000256847 0.000542018 6.32168e-19)
(0.000878892 0.000156852 0)
(1.71034e-05 -2.24492e-05 5.38568e-19)
(2.17272e-06 -4.64715e-06 -3.1993e-19)
(0.000966449 3.25427e-05 0)
(0.00103895 0.00226727 0)
(0.000925953 -2.4539e-06 0)
(0.00100347 0.000207734 4.27131e-19)
(0.000817922 -3.55276e-05 -2.84214e-19)
(0.000934481 0.000109554 -6.84699e-19)
(0.000800893 3.39745e-06 0)
(4.14718e-05 6.72098e-05 -1.71548e-19)
(0.000174511 0.000325881 1.08103e-18)
(0.000799818 1.40432e-05 -2.13276e-23)
(0.00109559 0.000209901 -6.68807e-19)
(0.00108974 0.000126959 0)
(2.3197e-06 5.49244e-06 2.51002e-19)
(1.71552e-05 -1.44725e-05 -1.94293e-19)
(0.000566575 4.20967e-05 6.94939e-21)
(4.33921e-06 -7.41661e-05 0)
(0.00106633 0.000255264 9.4993e-19)
(0.00502869 0.00974854 -2.82985e-19)
(0.00312135 0.00961752 1.27245e-18)
(3.37984e-05 -0.000101931 -1.91316e-19)
(4.9722e-05 -7.402e-05 1.85928e-18)
(0.00119039 0.000250315 1.67331e-19)
(0.0013285 0.00107836 2.34065e-19)
(0.000810993 1.17656e-06 -7.33655e-19)
(0.000197084 0.000950841 -2.38215e-19)
(0.000817022 0.000940382 -2.18564e-19)
(0.000800161 -2.45362e-06 0)
(8.33533e-05 0.000619908 0)
(9.51243e-05 0.000280885 -3.85777e-23)
(0.000718874 -4.46504e-05 -1.67741e-23)
(0.000824204 6.76676e-05 1.52591e-19)
(0.00263079 0.00206299 -1.23118e-18)
(0.00175991 0.00923773 -1.17205e-19)
(0.000834851 5.99621e-05 4.92212e-19)
(0.00632575 0.00405022 -1.75998e-19)
(0.00672108 0.0115577 -1.36449e-20)
(0.00473412 0.00784388 4.92848e-21)
(0.000803067 1.36834e-05 -2.18755e-18)
(0.000839223 5.4981e-06 6.16052e-24)
(7.69941e-06 -6.89597e-06 -3.47981e-19)
(4.60779e-05 8.79545e-05 -3.49243e-19)
(6.48822e-05 0.000267451 8.75151e-19)
(1.03528e-05 1.54214e-05 4.90356e-19)
(8.9651e-05 0.000228265 3.6973e-19)
(0.000821934 2.05939e-05 0)
(0.00534811 0.00949243 1.95048e-20)
(0.00153778 0.000636879 -2.61221e-20)
(0.000819759 3.71294e-05 3.6014e-19)
(2.87513e-05 -7.9592e-05 0)
(0.00184778 0.000746543 5.45943e-19)
(8.79353e-06 7.04404e-06 -2.70127e-19)
(3.29512e-05 2.74655e-05 9.71723e-20)
(0.00133103 0.00139718 6.36567e-19)
(0.000737187 4.89657e-05 1.83084e-19)
(3.96327e-06 -1.3613e-06 -1.70186e-19)
(0.00206177 0.00156095 -1.05577e-18)
(0.000126526 0.000176917 -8.18676e-19)
(0.00392114 0.00848716 -1.09075e-18)
(4.76682e-06 1.38691e-06 8.81339e-20)
(0.000121726 -9.24179e-05 -1.25729e-18)
(4.45562e-05 -5.65239e-05 4.05603e-20)
(0.00152613 0.000985194 0)
(0.00104059 0.000138672 -4.0375e-22)
(0.000453384 0.000848387 -4.01999e-20)
(0.000802983 2.76364e-05 -2.34055e-19)
(8.70619e-05 0.000183118 7.35996e-19)
(2.80142e-05 -5.93921e-05 4.03966e-19)
(1.77771e-05 1.45972e-05 -9.47007e-20)
(3.06635e-05 9.03686e-05 -3.20259e-19)
(0.000209906 -0.000228766 -5.45241e-19)
(0.00324992 0.0034625 2.89752e-21)
)
;

boundaryField
{
    back
    {
        type            empty;
    }
    ingreso
    {
        type            fixedValue;
        value           uniform (0.0008 0 0);
    }
    salida
    {
        type            zeroGradient;
    }
    front
    {
        type            empty;
    }
    defaultFaces
    {
        type            noSlip;
    }
}


// ************************************************************************* //
