/*--------------------------------*- C++ -*----------------------------------*\
  =========                 |
  \\      /  F ield         | OpenFOAM: The Open Source CFD Toolbox
   \\    /   O peration     | Website:  https://openfoam.org
    \\  /    A nd           | Version:  7
     \\/     M anipulation  |
\*---------------------------------------------------------------------------*/
FoamFile
{
    version     2.0;
    format      ascii;
    class       volScalarField;
    location    "35.5";
    object      p;
}
// * * * * * * * * * * * * * * * * * * * * * * * * * * * * * * * * * * * * * //

dimensions      [0 2 -2 0 0 0 0];

internalField   nonuniform List<scalar> 
591
(
0.000124004
0.000124021
0.000124033
0.000123991
0.000123992
0.000124072
0.00012406
0.000124024
0.000117038
0.000124033
0.000124197
0.000122926
0.000124042
0.000119797
0.000124026
0.000124077
0.000123969
0.000124062
0.000122047
0.000123409
0.000123996
-3.49879e-06
0.000124197
0.000123999
0.000124156
0.000124019
0.000124097
0.000124117
0.00012403
0.000124054
0.000124175
0.000124152
0.000124171
0.000124169
0.000124172
0.000123507
0.000124167
0.000124005
0.000124192
0.00012411
0.000124092
0.000124164
0.000124028
0.000124047
0.000124161
0.000124179
0.000119305
0.000124182
0.000124039
0.000124149
0.000124118
0.000124155
2.39468e-05
3.06064e-05
4.78804e-05
0.00012404
0.000124186
0.000124168
0.00012418
0.000124006
0.000124087
0.000124024
0.000124027
0.000124085
0.000122647
0.000124025
0.00012403
0.000124178
0.000120801
0.000124044
0.000124031
0.000124184
0.000124144
0.000124165
0.00012417
0.000124147
0.000123998
0.000124181
0.000124002
0.000123925
0.000123783
0.000124186
0.000124148
0.000124117
0.000124193
0.000124013
0.000124105
0.000124176
0.00012414
0.000123894
0.000124153
0.000124087
0.00012411
0.000124009
0.000124192
0.000124146
0.000123712
0.00012361
0.000123742
0.000124196
0.000124108
0.000124016
0.0001242
0.000123993
0.000124199
0.00012403
0.000124021
0.000124149
0.000124189
0.000124194
0.000124078
0.000124166
0.000124044
0.000124174
0.000124194
0.00012417
0.000124119
0.000124126
0.000123675
0.000124085
0.000124027
0.000124045
0.000124078
0.000124014
0.000124166
0.000120301
0.000124197
0.000124171
0.000123783
0.000124171
0.000124017
0.000123707
0.000124132
0.000124129
0.000124174
0.000124038
0.000122682
0.000124199
0.000124022
0.000123677
0.000123742
0.000124101
0.000124176
0.000124191
0.000124187
7.6329e-06
3.7002e-06
2.09626e-06
3.81835e-05
3.67268e-05
5.70047e-06
3.83277e-05
1.57654e-05
3.73017e-05
1.78289e-05
0.000124025
0.000124013
0.000124184
0.000124182
0.000124188
0.000124186
0.00012418
0.000124178
0.000124181
0.000124182
0.000124142
0.000124189
0.000124184
0.00012419
0.000124119
0.000123481
0.000124192
0.000122212
0.000124164
0.000124174
0.000124115
0.000124033
0.000124174
0.000124183
0.000124178
0.000123587
0.00012256
0.000123138
0.000123548
0.000124177
0.000124181
0.00012412
0.000124
0.000124174
0.000123051
0.000123404
0.000124002
0.000124173
0.000123868
0.000124166
0.000124173
0.000124145
0.00012384
0.000123988
0.000124171
0.000124182
0.000124176
0.000123969
0.000124158
0.000123965
0.000124191
0.000124024
0.000124019
0.000124187
0.000123807
0.00012399
0.000124035
0.00012365
0.000124137
0.000123797
0.000124082
0.000124083
0.000124162
0.000123568
0.000124076
0.000123978
0.000123987
0.000124147
0.000123904
0.000124066
0.000123974
0.00012388
0.00012398
0.000124193
0.000123946
0.000124186
0.000124024
0.000124161
0.000124018
0.000124015
0.000124193
0.000123919
0.000124184
0.000123912
0.000123959
0.000124031
0.000124007
0.000124035
0.000124027
0.000123786
0.000123995
0.000123941
0.000124154
0.000124016
0.000123848
0.000124142
0.000123407
0.000123952
0.000123313
0.000123178
0.000124013
0.000123977
0.00012401
0.000124006
0.00012396
0.000124191
0.000124052
0.000124133
0.000124051
0.000124056
0.000124068
0.00012414
0.000123795
0.000124186
0.000123834
0.000123727
0.000124042
0.000124161
0.000123745
0.000124187
0.000124087
0.000124132
0.000124145
0.000124039
0.000123997
0.000123804
0.000123974
0.000123988
0.000124042
0.000124086
0.00012416
0.000124172
0.000124181
0.000123951
0.000124047
0.000124165
0.000124174
0.000124171
0.000123973
0.000124181
0.000124053
0.000124156
0.00012394
0.000124183
0.000123932
0.000124162
0.000124069
0.000123998
1.1656e-05
2.19303e-05
0.000123972
0.000124026
0.000124189
0.000123961
0.00012419
0.000124038
0.000124183
0.000124163
0.00012392
0.000124157
0.000123992
0.000124184
0.000124032
-2.11111e-07
0.000123866
0.000124165
0.000124162
0.00012388
0.000124001
0.000124034
0.000124157
0.000123944
0.000124177
0.000124072
0.000124027
0.000124155
0.00012399
0.000123915
0.000123939
0.000124041
4.74464e-05
0.000124172
0.000124155
0.000124018
0.000124178
0.000124097
0.000124043
0.000124018
0.000124021
0.000124165
0.000124058
0.000123955
0.000124051
0.000123957
0.000124178
0.000123965
0.00012401
0.000124051
0.000124132
1.98917e-05
2.73512e-05
3.43201e-05
9.64873e-06
0.000124001
3.30764e-05
2.60071e-05
0.000124175
1.90966e-05
1.70585e-05
3.82153e-05
7.5882e-06
3.99697e-05
5.63963e-06
4.08666e-05
3.72194e-06
4.28494e-05
1.89873e-06
3.64147e-05
2.32121e-05
2.94642e-05
1.50207e-05
0.000123872
0.000124185
0.00012407
0.000124079
0.000120997
0.000124137
0.00012418
0.000124152
0.000123977
0.000124186
0.000124179
0.000124168
0.000124165
0.000123936
0.000124023
0.000124163
0.000124168
0.000124008
0.000123895
0.000123909
0.000123496
0.000123957
0.000124195
0.000124172
0.000124034
0.000124193
0.000123879
0.000124037
0.000123836
0.000122955
0.000124166
0.000124177
0.000124193
0.000123886
0.000124046
0.000123838
0.000124041
0.000124024
2.60469e-05
2.18872e-05
3.30572e-05
1.16286e-05
0.0001242
0.000123884
1.98405e-05
2.82682e-05
3.56277e-05
9.58677e-06
0.00012401
0.000124121
0.00012398
0.000123982
0.00012404
0.000124126
0.000123918
0.000124163
0.000124089
0.000123194
0.000123987
0.000123955
5.93195e-05
0.000123318
0.00012419
0.000124011
0.000123916
0.000124179
0.000124182
0.000123999
0.000123792
0.000124029
0.000124101
0.000123871
0.000124137
0.000123003
0.000123972
0.000123966
0.000124134
0.000100883
0.000123982
0.000123583
0.000123949
0.000124191
0.000123845
1.09098e-05
2.11304e-05
3.53942e-05
2.8192e-05
1.36903e-05
6.1008e-08
4.20777e-05
2.7018e-06
4.01745e-05
4.78123e-06
3.94396e-05
6.82923e-06
3.86492e-05
8.86932e-06
3.73172e-05
1.36944e-05
3.17466e-05
3.05951e-05
2.3951e-05
2.52955e-05
1.7799e-05
1.29599e-05
1.57451e-05
0.000124184
0.000102536
0.000124004
0.000123945
0.000124188
0.000124084
0.000124194
0.000123916
0.00012407
0.000124159
0.000124153
0.000124182
0.000123921
0.000124042
0.000123896
0.000124123
0.000123973
0.000124189
0.000124044
0.000123875
0.000123878
0.000124054
0.000124048
0.000124195
0.000124186
0.000124191
0.000124157
0.000124195
0.000123834
0.000124029
0.00012419
0.000123973
0.000124109
0.000124027
0.000124041
0.000123899
0.000124157
0.000124156
0.000123473
0.000121446
0.000123205
0.000123747
0.000124028
0.000123853
0.000124052
0.000124193
0.00012415
0.000124037
0.000123636
0.000123622
0.00012419
0.000124159
0.000124054
0.000124126
0.000123672
5.83692e-05
4.01469e-05
0.000124131
0.000124148
0.000123518
0.000122846
0.000124011
0.000123724
0.000123469
0.000124036
0.000123902
0.000124172
0.000124053
0.000124085
0.0001191
5.45208e-05
0.000124051
8.12521e-05
1.86941e-06
-3.82181e-07
0.000124022
0.000123993
0.000124159
0.000124195
0.000124181
0.00012419
0.000124183
0.000124009
-2.29929e-06
0.000122931
0.00012404
0.000124139
0.00012211
0.000124188
0.000124188
0.000122373
0.000124121
0.00012416
0.000121763
0.000124187
7.64298e-05
0.000124187
0.000123703
0.000124152
0.000122474
0.000123727
0.000123762
0.000124056
0.00012419
0.000124146
0.000124187
0.000124198
0.000124036
0.000116277
)
;

boundaryField
{
    back
    {
        type            empty;
    }
    ingreso
    {
        type            zeroGradient;
    }
    salida
    {
        type            fixedValue;
        value           uniform 0;
    }
    front
    {
        type            empty;
    }
    defaultFaces
    {
        type            zeroGradient;
    }
}


// ************************************************************************* //
