/*--------------------------------*- C++ -*----------------------------------*\
  =========                 |
  \\      /  F ield         | OpenFOAM: The Open Source CFD Toolbox
   \\    /   O peration     | Website:  https://openfoam.org
    \\  /    A nd           | Version:  7
     \\/     M anipulation  |
\*---------------------------------------------------------------------------*/
FoamFile
{
    version     2.0;
    format      ascii;
    class       volVectorField;
    location    "35.5";
    object      U;
}
// * * * * * * * * * * * * * * * * * * * * * * * * * * * * * * * * * * * * * //

dimensions      [0 1 -1 0 0 0 0];

internalField   nonuniform List<vector> 
591
(
(0.000810915 -4.14517e-05 1.22045e-18)
(0.000791025 -3.4058e-05 -6.62878e-19)
(0.000852392 -5.28455e-05 5.7183e-20)
(0.000840464 4.10437e-06 -1.486e-19)
(0.000824367 1.64692e-05 2.24254e-19)
(0.000787069 -3.6066e-05 -1.38429e-19)
(0.00054132 -0.000368905 8.03598e-19)
(0.000796447 -2.23496e-06 2.07266e-18)
(0.00575906 0.00248899 9.88058e-19)
(0.000785224 -1.80851e-05 2.42556e-18)
(5.67807e-05 0.000177292 1.21885e-18)
(0.000899108 0.00132895 9.40869e-21)
(0.000792025 9.93442e-06 1.28938e-18)
(0.0015798 0.00236922 -7.87882e-19)
(0.000799373 1.29299e-05 -4.38281e-19)
(0.000112932 -0.000245933 2.53832e-22)
(0.000132284 0.000671006 7.05698e-19)
(0.000827571 2.92655e-05 -4.88921e-19)
(0.00196541 0.000374985 4.73324e-19)
(0.00134811 0.000272252 -2.47345e-19)
(0.000830974 6.44117e-06 3.7259e-19)
(0.0034046 0.00656965 -8.08155e-20)
(3.40611e-05 7.53962e-05 2.71178e-19)
(0.000825933 2.87746e-06 -4.51526e-19)
(1.68245e-05 -2.15702e-05 3.59216e-19)
(0.00075715 2.63437e-05 0)
(9.03725e-05 0.000480018 1.60086e-19)
(0.000518887 2.72775e-05 -1.79017e-19)
(0.000746166 5.25189e-05 1.14512e-18)
(0.000820568 1.88649e-05 5.81615e-19)
(6.55968e-05 -1.44968e-06 -3.29565e-24)
(4.37129e-05 -5.27128e-05 3.52515e-19)
(4.46458e-05 -3.96474e-06 -4.64367e-20)
(5.32129e-05 -1.04856e-05 0)
(6.17171e-05 -1.42539e-05 1.13222e-18)
(0.00116645 0.000128088 1.8008e-19)
(3.85398e-05 -6.90018e-06 4.47574e-20)
(0.000824098 1.61016e-05 3.99721e-23)
(3.29605e-05 4.97125e-05 2.66278e-19)
(4.92303e-05 -0.000139754 -8.55648e-19)
(0.000573183 -0.000193723 9.58786e-19)
(3.18044e-05 -8.98629e-06 4.55257e-20)
(0.000791851 -6.07558e-06 -1.56431e-18)
(0.000822796 2.33681e-05 -6.8074e-19)
(2.26986e-05 -1.08024e-05 0)
(6.16924e-05 1.02363e-05 8.5267e-20)
(0.00132632 0.00451736 8.93695e-19)
(8.38129e-05 2.17665e-05 8.64421e-20)
(0.000793 2.36145e-05 0)
(0.000367766 -0.000157418 6.78486e-19)
(0.000371944 0.000279778 5.1235e-21)
(0.000385637 6.87375e-05 -1.00474e-18)
(0.00634805 0.0109408 -7.68798e-19)
(0.00622463 0.0107967 1.53139e-20)
(0.00561211 0.0103782 1.4567e-18)
(0.000808988 -3.73442e-07 0)
(7.30873e-05 3.66952e-05 0)
(0.000322075 3.05586e-05 9.02051e-24)
(7.02113e-05 1.45323e-05 -3.46781e-19)
(0.000825699 -6.28531e-06 0)
(0.000613421 2.69605e-05 3.17885e-19)
(0.000817016 -2.0285e-06 2.21273e-18)
(0.00077886 6.80951e-06 -5.42534e-19)
(0.000790482 1.95644e-05 -3.12748e-19)
(0.00171766 0.000485781 5.43769e-19)
(0.000785837 5.11135e-07 -1.14287e-18)
(0.000816601 -1.19462e-06 -5.24766e-19)
(9.14855e-05 2.59157e-06 -1.73572e-19)
(0.000675843 0.00229367 0)
(0.000818508 1.95441e-05 0)
(0.000756795 1.67491e-05 -1.37768e-18)
(4.28838e-05 1.91012e-05 0)
(0.000282501 0.000276327 3.2712e-19)
(4.8832e-05 -1.97993e-05 0)
(4.8982e-05 -6.73392e-06 1.59622e-19)
(2.90575e-05 -5.42333e-05 -3.36998e-20)
(0.000770364 6.5707e-05 2.47349e-19)
(4.97564e-05 1.34474e-05 0)
(0.000785825 5.68938e-05 4.4603e-19)
(0.000753202 0.000298469 2.10922e-19)
(0.000963144 5.95199e-05 -3.98354e-20)
(4.79928e-05 2.70821e-05 -4.52284e-20)
(7.26488e-06 -3.82986e-05 0)
(0.000422069 0.000223417 1.70334e-19)
(2.45982e-06 3.1625e-05 0)
(0.000762861 2.44353e-05 -6.09011e-19)
(0.000565591 -0.000116499 0)
(7.31541e-05 1.77749e-06 -1.7464e-19)
(5.51072e-06 -5.14996e-05 0)
(0.000812086 0.000247896 -3.41596e-19)
(5.13735e-06 -2.36109e-05 0)
(0.000414968 0.00032461 -1.25858e-23)
(0.000512839 0.000116429 0)
(0.000793647 4.9572e-05 -2.08707e-24)
(3.07812e-06 2.10247e-05 -4.22107e-20)
(0.000436813 3.73478e-06 1.76526e-18)
(0.00102083 7.37168e-05 4.16457e-20)
(0.000922847 4.00883e-05 6.41088e-22)
(0.000726408 0.000654995 2.69734e-19)
(5.38827e-06 6.19301e-05 0)
(7.47498e-06 -9.33388e-05 -3.12669e-19)
(8.26645e-06 -0.000174892 -1.09906e-18)
(2.20367e-06 9.63733e-05 -5.96525e-19)
(0.000686527 -8.92946e-06 0)
(5.68819e-06 0.000123072 0)
(0.00079288 9.98583e-06 2.22563e-18)
(0.000766827 2.14747e-05 1.5157e-18)
(0.000403287 -4.31865e-05 0)
(5.05819e-05 0.000229722 -8.95708e-19)
(-1.53983e-06 0.000197264 4.96591e-19)
(7.59464e-05 0.00045176 6.25545e-19)
(0.00029656 0.000104696 -9.37881e-19)
(0.000804435 1.51526e-05 1.36337e-19)
(0.00026566 -1.31238e-05 5.31716e-19)
(3.42642e-06 4.33917e-05 0)
(3.33071e-05 0.000310722 -1.09437e-18)
(0.000313894 0.00032891 -1.61838e-19)
(7.10412e-06 -7.17303e-05 1.46733e-19)
(0.000659267 0.00079891 0)
(0.000360114 0.000392321 5.74896e-20)
(0.000804602 1.5517e-06 1.07194e-18)
(0.000787311 -7.07667e-06 -2.68716e-18)
(9.0871e-06 -0.000119411 0)
(0.000722904 -2.05534e-05 -1.12439e-19)
(0.000318938 -7.10378e-05 1.24443e-18)
(0.00268447 0.000793459 -3.36047e-19)
(5.71589e-07 0.000154663 -6.13367e-19)
(-5.44409e-06 0.000189862 1.61983e-18)
(0.00079954 1.86708e-05 -3.89489e-20)
(7.18479e-05 -9.00265e-06 -7.50873e-19)
(0.000787896 2.55897e-05 -3.90073e-19)
(0.000847835 2.73041e-05 -4.10205e-20)
(5.31383e-05 0.000361944 -5.97018e-19)
(0.000470428 8.09616e-05 -4.94379e-19)
(5.62649e-05 -2.2445e-06 1.563e-19)
(0.00081878 4.45544e-06 -1.07743e-18)
(0.00160653 0.000215285 -1.13708e-18)
(1.96385e-06 7.61754e-05 4.96602e-19)
(0.000800607 6.22636e-06 -4.98096e-19)
(0.000886635 0.000539408 -7.85801e-20)
(0.00013184 0.000829839 0)
(0.000560586 6.74543e-05 0)
(0.000271314 6.32479e-05 -1.61118e-18)
(6.78381e-05 6.44571e-05 -1.37535e-18)
(3.47166e-05 2.37557e-05 0)
(0.00424765 0.0074073 -8.51687e-21)
(0.00422895 0.00738208 3.18232e-20)
(0.00443177 0.00758442 -5.19678e-21)
(0.00420756 0.00773655 0)
(0.00420046 0.0076011 5.77651e-19)
(0.00424726 0.00740959 -7.77206e-20)
(0.00421077 0.00804464 4.84665e-19)
(0.00428674 0.00741961 0)
(0.00420779 0.00854007 6.1707e-19)
(0.00432502 0.00744568 2.07412e-19)
(0.000807389 -3.1481e-06 -1.37104e-18)
(0.00075318 5.0178e-05 0)
(0.000218096 6.73913e-05 1.278e-19)
(5.58894e-05 1.94249e-05 8.72657e-20)
(8.32066e-05 5.10806e-05 6.80644e-19)
(0.000112173 4.86574e-05 -3.4198e-19)
(0.000107731 1.26238e-05 0)
(5.44165e-05 7.17586e-06 8.19089e-20)
(0.000204571 0.000143931 0)
(0.000170857 5.55379e-05 -5.24722e-20)
(0.000336833 0.000230205 -5.09687e-21)
(6.02778e-05 4.82575e-05 -4.38059e-19)
(9.69042e-05 3.41401e-05 -8.53259e-20)
(9.52021e-05 6.87745e-05 1.31314e-21)
(0.000248566 0.000371654 -6.66728e-19)
(0.000125329 0.0010481 0)
(4.58148e-05 5.76494e-05 3.43378e-19)
(0.000201269 0.00178914 0)
(0.000206422 0.000259843 7.0526e-19)
(4.42586e-05 -5.35205e-06 1.11469e-19)
(0.000469286 0.000169482 -1.72453e-19)
(0.000747029 2.89543e-05 -1.91626e-18)
(4.86377e-05 -3.18399e-07 4.1021e-24)
(0.00015547 3.52063e-05 2.2479e-19)
(0.000240284 0.000105562 -9.00135e-20)
(0.00087569 0.000708963 3.35218e-19)
(0.000741773 0.0016193 -9.22233e-21)
(0.000380979 0.00141396 -9.43055e-21)
(0.00101464 0.000558244 0)
(0.000112167 -1.0976e-05 1.1198e-18)
(0.000124246 2.54403e-05 -4.43554e-20)
(0.000428286 -0.000265438 -1.13666e-18)
(0.000802199 2.99987e-05 0)
(0.000185003 2.1967e-05 3.63614e-19)
(0.000297426 0.00133635 0)
(0.00104098 0.000755381 -7.30822e-20)
(0.000820287 3.99025e-05 -1.86163e-19)
(8.82429e-05 -1.86426e-05 -3.00273e-19)
(0.000809336 0.00031557 -2.08243e-20)
(7.09631e-05 -2.19916e-05 -6.00079e-19)
(0.000226192 0.000183174 8.64619e-20)
(0.00022657 0.000312667 -3.45305e-19)
(0.000871252 0.000239462 0)
(0.000796945 4.6486e-05 0)
(0.000259424 0.000149862 1.77001e-19)
(0.000234944 1.75063e-05 1.71272e-24)
(0.000184725 0.000212952 0)
(0.000282516 0.000650588 -5.56103e-21)
(0.000333119 1.5952e-05 0)
(0.000345012 0.000600133 0)
(0.000113948 9.05766e-05 -1.34793e-21)
(0.000809934 7.05258e-06 -9.37833e-19)
(0.000812991 4.10744e-06 7.79614e-19)
(0.000133577 6.71472e-05 -1.49991e-19)
(0.000940817 0.000152832 8.51607e-20)
(0.000824885 4.79439e-05 3.32976e-19)
(0.000800179 1.73418e-05 -2.95275e-19)
(0.000995755 0.000403997 0)
(0.000428125 0.000127452 6.25011e-19)
(0.000883325 0.000315936 2.09334e-20)
(0.000557572 0.000163823 0)
(0.000272656 0.000442871 4.09976e-19)
(0.000259061 0.000225345 -8.449e-20)
(0.00109235 0.000377238 -7.82625e-19)
(0.000601366 0.000113623 -1.79465e-19)
(0.000792331 7.69237e-05 -7.45731e-21)
(0.000824881 2.72532e-05 9.35343e-20)
(0.000101391 -9.06429e-05 -1.9832e-18)
(0.000727062 0.000380987 2.19428e-19)
(0.000646113 6.39688e-05 2.30794e-20)
(0.000692072 0.000275794 1.565e-23)
(0.000715585 0.000451904 -4.09884e-19)
(0.000833146 3.95207e-05 9.0727e-20)
(7.60533e-05 8.78923e-05 0)
(0.000642224 0.000416358 -4.66077e-20)
(0.000185102 0.000107085 0)
(0.000369078 0.000504698 -2.65046e-19)
(0.000309376 0.000177427 0)
(0.000661151 0.000202662 3.55566e-19)
(0.000634129 0.000265219 -4.37657e-20)
(8.31789e-05 0.000109263 6.19722e-19)
(0.000871145 0.00010351 -1.63492e-18)
(6.34924e-05 2.62601e-05 2.57431e-19)
(0.000869878 5.1787e-05 -1.65763e-18)
(0.000820328 7.45468e-05 1.61815e-19)
(0.000797267 1.89748e-05 1.93088e-18)
(0.000794113 1.70464e-05 -1.31479e-19)
(0.000713144 7.4333e-05 0)
(0.000808491 3.28792e-05 8.80914e-19)
(0.000935057 0.000232174 -4.27522e-19)
(0.000752335 8.12872e-05 -4.83767e-19)
(0.000766586 0.000226706 -8.82082e-20)
(0.000235192 -0.000123214 -2.08123e-18)
(0.000722259 8.8992e-05 8.87298e-19)
(0.000633048 0.000595717 0)
(0.000121755 -0.000103223 0)
(0.00119061 0.000468169 4.97619e-19)
(0.000741595 -8.81324e-05 -3.2346e-18)
(0.00130848 0.000427805 5.76101e-19)
(0.00124863 0.000714445 -6.39858e-20)
(0.000791856 4.52408e-05 -2.12732e-19)
(0.000820698 7.16759e-05 -1.42219e-18)
(0.000809828 1.77926e-05 1.57003e-18)
(0.000806811 2.56498e-05 9.68328e-20)
(0.000662661 0.000345716 -4.408e-20)
(0.000105643 0.000135562 7.84003e-24)
(0.000723196 -5.93035e-05 2.65352e-19)
(0.000241379 -0.000212734 -7.36441e-19)
(0.000605879 0.000190512 0)
(0.000683924 2.76196e-05 9.9139e-20)
(0.000661543 9.67773e-06 -3.81188e-19)
(0.000379751 0.000178432 3.93665e-20)
(0.000786367 0.000498452 -1.65616e-19)
(0.000153965 8.60586e-05 2.54647e-25)
(0.000802762 0.000396959 0)
(0.000962415 0.000321997 4.16173e-20)
(0.000731943 -9.37829e-05 -6.16885e-19)
(0.000339822 0.000114674 4.98172e-19)
(0.000893511 0.000419413 0)
(5.43307e-05 3.57064e-05 1.33835e-19)
(0.000470097 0.000272813 2.14137e-19)
(0.000454592 -0.000106823 -7.09859e-19)
(0.000172842 -0.000137862 -1.06001e-18)
(0.000810639 1.58004e-05 -4.7635e-19)
(0.000798302 -0.000112206 -1.93614e-19)
(0.00056394 0.000722098 -1.17537e-18)
(0.000831723 4.62395e-05 -6.69987e-20)
(0.000723751 -3.3924e-05 1.26089e-18)
(0.000672774 9.87284e-05 2.28006e-20)
(0.000514916 0.000217155 -1.65828e-19)
(3.98914e-05 -2.47164e-05 -8.76639e-20)
(0.000189168 -2.80208e-05 2.40832e-18)
(2.76099e-05 9.56184e-07 -1.94992e-19)
(0.000795011 9.59243e-05 3.61833e-19)
(0.000638646 0.000139544 0)
(0.000200833 -5.84152e-05 -1.04901e-18)
(0.000129992 -4.71427e-06 3.13188e-19)
(0.000127621 -3.18104e-05 3.44946e-25)
(0.000782918 0.000113451 -3.18844e-19)
(0.000159307 -4.64871e-06 0)
(0.000571431 0.000243928 0)
(0.000111217 0.000338123 -3.63157e-19)
(0.000846549 9.94686e-05 2.10328e-18)
(2.24895e-05 1.63977e-06 0)
(0.000854734 4.3579e-05 0)
(5.22809e-05 -2.66842e-05 0)
(0.000810833 3.09891e-05 -4.43613e-21)
(0.000802828 -6.29287e-05 0)
(0.00425685 0.00740734 8.07991e-20)
(0.00436184 0.00748336 1.43791e-19)
(0.000840893 5.11339e-06 0)
(0.000761077 -5.7333e-05 8.135e-19)
(0.00015393 0.0001344 1.49339e-19)
(0.000843402 7.55748e-05 7.96832e-19)
(0.000133855 0.000110994 2.34605e-20)
(0.000758654 -4.34513e-05 6.26717e-19)
(3.96162e-05 1.18654e-05 0)
(3.54659e-05 -1.64816e-05 -4.48898e-20)
(0.000874404 5.2492e-05 -4.85817e-19)
(4.3768e-05 -3.55001e-05 -6.70339e-19)
(0.000740743 0.000119205 -4.23535e-20)
(0.00016787 0.000171648 -1.88262e-19)
(0.000809516 1.58322e-05 0)
(0.00468252 0.00815156 8.83267e-22)
(0.000166494 0.000783583 3.33982e-19)
(0.000133924 -4.88771e-05 -9.15359e-19)
(7.24442e-05 -3.51983e-05 -1.16979e-18)
(0.000736624 1.78369e-05 1.89935e-20)
(0.000572161 0.000413861 0)
(0.00040423 0.000436085 -2.56545e-19)
(0.000106164 -5.31474e-05 1.18469e-18)
(0.000694488 2.78726e-06 7.66756e-20)
(4.76377e-05 2.56395e-06 4.07442e-19)
(0.00065853 -5.9781e-05 1.17284e-18)
(0.000806291 2.85387e-05 -5.97911e-19)
(8.46142e-05 -5.51675e-05 1.71062e-18)
(0.00083757 -2.99438e-06 -3.80455e-24)
(0.000712541 9.71922e-06 -3.76906e-20)
(0.00085529 5.91691e-05 0)
(0.000813569 3.34722e-05 0)
(0.00592556 0.00723992 2.58941e-19)
(2.8924e-05 1.69098e-07 -1.19668e-19)
(0.000165943 -8.1637e-05 7.73577e-19)
(0.000709499 0.000121466 -6.97135e-19)
(3.29849e-05 -6.74471e-07 2.01637e-19)
(0.000579496 -2.53982e-05 -7.24546e-19)
(0.000724925 2.69286e-05 1.55819e-18)
(0.000689212 0.000155588 -3.55771e-19)
(0.000804852 -1.80276e-05 3.54713e-19)
(9.26738e-05 -2.9729e-05 1.11708e-18)
(0.000787087 9.0952e-06 -3.19746e-19)
(0.000853607 4.83534e-05 0)
(0.000528764 0.000302792 4.2139e-20)
(0.000840635 4.49117e-05 -9.36168e-19)
(2.89219e-05 2.95544e-07 9.11753e-19)
(0.000832751 4.16169e-05 9.54175e-19)
(0.000841401 -1.37529e-05 -9.60433e-19)
(0.000713348 5.90536e-06 -5.69747e-19)
(0.000489905 -5.38571e-05 -5.26162e-19)
(0.00432765 0.00744962 2.29416e-19)
(0.00422633 0.00753201 -2.79011e-19)
(0.00422292 0.00758861 2.67594e-19)
(0.0042567 0.00741629 1.98109e-19)
(0.000844353 -7.18143e-06 1.4368e-19)
(0.00447539 0.00750909 0)
(0.00440224 0.00751547 -3.8679e-19)
(4.28685e-05 -2.61313e-07 -9.98102e-19)
(0.00417147 0.00747305 -6.34294e-20)
(0.00414688 0.00743464 -2.21903e-19)
(0.00602843 0.0106045 0)
(0.00653659 0.0111869 3.72812e-20)
(0.0060082 0.0105743 0)
(0.00655337 0.0112076 1.30358e-19)
(0.0059953 0.0105981 2.69909e-19)
(0.00659143 0.0112243 1.24962e-20)
(0.00593385 0.0106116 -7.77264e-19)
(0.00662349 0.0111435 8.25244e-21)
(0.0039018 0.00920433 -1.91058e-19)
(0.00418899 0.00749256 3.81799e-21)
(0.00424053 0.00755513 7.93999e-20)
(0.00415255 0.00743698 4.12759e-20)
(0.000853332 0.000180791 4.47185e-20)
(1.63308e-05 2.28657e-06 0)
(0.000662069 -0.000148247 0)
(0.000712994 3.63399e-05 0)
(0.00243878 0.00111384 4.19897e-21)
(0.000739262 -2.7432e-05 1.71208e-19)
(4.6176e-05 7.57832e-06 4.54481e-20)
(1.84502e-05 -3.26896e-05 1.65401e-18)
(0.000838448 2.18321e-05 0)
(3.19383e-05 1.5269e-05 -1.91906e-19)
(0.000144145 0.000230565 0)
(2.9326e-05 -1.29164e-06 0)
(2.43015e-05 -1.93274e-06 0)
(0.000799991 0.000125131 1.13572e-20)
(0.000811353 -5.03173e-06 1.77737e-19)
(3.35089e-05 0.000305348 -1.39199e-23)
(0.000160878 0.000277952 -1.84351e-18)
(0.000592532 0.000336803 -8.57753e-20)
(0.000889701 0.000128028 6.02358e-19)
(0.000705101 -0.000363621 6.71531e-19)
(0.000335385 0.00111404 0)
(0.000455109 0.000563265 2.71714e-18)
(9.53965e-05 0.000153482 -1.80345e-18)
(3.50865e-05 4.40417e-07 0)
(0.00081966 -3.42875e-05 3.6099e-20)
(2.00027e-05 4.22915e-05 1.64601e-18)
(0.00089786 2.63636e-05 2.71541e-19)
(4.15818e-05 -0.000140026 3.78237e-18)
(0.000926052 4.01919e-05 -2.69341e-19)
(0.00139446 0.000135747 7.48021e-19)
(4.35033e-05 -1.23009e-05 8.26494e-20)
(4.37366e-05 6.85853e-06 -8.59531e-19)
(4.88191e-05 0.000153798 0)
(0.000892031 8.09841e-05 5.97489e-19)
(0.000486334 0.000370158 2.37344e-19)
(0.00076045 1.74289e-05 -3.88892e-20)
(0.000756187 -1.3852e-05 2.56832e-19)
(0.000719087 -0.000223369 0)
(0.00632048 0.0108981 -1.68261e-19)
(0.00637846 0.0109742 4.06125e-19)
(0.00615906 0.0107286 -6.18832e-19)
(0.00649943 0.0111323 -8.11049e-20)
(3.98004e-05 0.000124102 8.01267e-19)
(0.00089485 5.73071e-05 1.54024e-22)
(0.00641113 0.0110046 -3.86837e-19)
(0.00628113 0.0108446 5.48531e-19)
(0.00607988 0.0106729 -4.1548e-19)
(0.00652029 0.0111658 -6.81615e-20)
(8.80269e-05 0.000547709 -2.02047e-20)
(0.000149846 -0.000193465 -7.93202e-19)
(0.000751027 -1.06983e-05 -7.60013e-19)
(0.000712316 0.000220495 0)
(0.000789798 2.11428e-06 0)
(0.000184194 0.000393585 3.36582e-19)
(0.00059625 0.000545078 -5.41926e-19)
(1.77966e-05 -2.71689e-06 1.78568e-19)
(0.000208193 0.000464256 -7.39013e-19)
(0.00100273 0.000974659 -1.12809e-19)
(0.000728311 0.000170447 0)
(0.000775878 0.000172431 1.3115e-19)
(0.00636968 0.00587517 1.12998e-18)
(0.000723896 0.00114042 8.28102e-20)
(4.35685e-05 4.31381e-05 -7.45399e-20)
(0.000815709 3.89151e-05 0)
(0.000873967 2.30549e-05 -3.57292e-20)
(4.20489e-05 5.46925e-06 -1.96842e-19)
(3.61828e-05 6.91072e-06 1.93146e-19)
(0.000822777 2.19766e-05 5.36398e-19)
(0.000960217 0.000104137 6.59186e-19)
(0.000654319 3.87045e-05 0)
(0.00022055 -0.000310737 -3.98249e-19)
(0.000896773 0.000146609 3.90017e-19)
(3.23551e-05 -7.9132e-05 2.03314e-19)
(0.00144256 0.000379197 -2.58664e-18)
(0.000684586 -1.30095e-06 0)
(0.000779258 0.000142645 3.75821e-19)
(9.13251e-05 0.000406598 0)
(0.00118116 0.00816825 4.62171e-19)
(0.000469415 0.000506684 -1.22508e-18)
(0.000542054 0.000976162 -1.83903e-19)
(0.000866292 2.40277e-05 -1.45856e-19)
(1.75827e-05 2.97638e-05 0)
(0.000918012 7.39813e-05 6.12368e-19)
(0.00410702 0.00739798 8.15273e-20)
(0.00417303 0.00747739 4.73891e-20)
(0.00449866 0.00751281 4.54421e-19)
(0.00444374 0.00754049 -3.26616e-19)
(0.00647314 0.011108 8.11919e-20)
(0.00390956 0.00714095 -9.48708e-22)
(0.00551145 0.00779486 -5.64981e-19)
(0.00409158 0.00736618 5.2349e-21)
(0.00518971 0.00785511 5.11894e-19)
(0.00407242 0.00733567 -4.90137e-20)
(0.00495383 0.007713 0)
(0.00407856 0.0073656 -8.585e-20)
(0.00474172 0.00758586 4.92849e-19)
(0.00409733 0.00737922 8.76342e-20)
(0.00457412 0.00752379 0)
(0.00428049 0.00741845 1.39983e-19)
(0.00424074 0.00760027 5.82025e-19)
(0.00446689 0.00752502 -5.50554e-19)
(0.00438661 0.00750229 3.71526e-19)
(0.00423144 0.00752858 3.23013e-19)
(0.0064285 0.0110407 -4.92593e-21)
(0.00411909 0.00740441 3.12074e-20)
(0.00645675 0.0110697 0)
(2.93552e-05 8.4652e-06 -1.90041e-19)
(0.00198428 0.00653503 2.28593e-19)
(0.000844244 -1.5747e-05 1.09735e-19)
(0.000856584 1.76419e-05 0)
(3.3119e-06 3.29251e-06 -3.99493e-19)
(5.75983e-05 -0.000192894 6.92384e-19)
(2.46495e-05 6.37125e-05 2.09093e-18)
(0.000811115 0.000183562 -9.01654e-20)
(0.00078625 1.15906e-05 6.99281e-19)
(3.71236e-06 -3.72661e-06 3.10293e-19)
(2.60392e-05 -4.23828e-05 -1.84724e-18)
(0.000750076 2.65251e-05 1.63342e-19)
(0.000852137 0.000128396 -3.07498e-20)
(0.000784004 -8.38615e-06 1.46886e-19)
(0.000402881 0.000662389 0)
(0.00010788 -0.000152942 1.15217e-18)
(0.000845509 1.69701e-05 1.52411e-19)
(2.2998e-05 2.79812e-05 0)
(0.000105426 0.000566965 -6.31722e-19)
(0.000605457 0.000602138 1.319e-18)
(0.000337895 0.000730379 0)
(0.000783812 -1.64258e-05 0)
(0.000786547 1.79291e-05 1.16918e-18)
(2.26789e-05 5.38199e-05 -3.51822e-18)
(2.0816e-05 1.00974e-05 3.73979e-19)
(0.000114161 0.000154723 0)
(5.99288e-05 -4.4223e-05 0)
(6.86567e-05 0.00012087 2.01186e-19)
(0.000913136 0.000174284 3.50791e-19)
(0.000796629 6.49981e-06 -1.38086e-18)
(2.60796e-05 3.85001e-05 0)
(0.000554831 4.39997e-05 -6.0275e-20)
(0.000793416 3.65491e-05 -1.54759e-19)
(0.000826446 1.90341e-05 1.04074e-18)
(0.000255825 0.000546457 6.32762e-19)
(0.000844205 0.000149351 0)
(2.8995e-05 -3.03809e-05 5.39195e-19)
(4.26726e-06 -1.27304e-05 -3.20277e-19)
(0.00106624 1.83484e-05 0)
(0.00102283 0.00222526 0)
(0.00102033 -3.80147e-05 0)
(0.000984423 0.000195949 4.27623e-19)
(0.000815793 -2.03535e-05 -2.81907e-19)
(0.000904298 0.000119614 -6.85489e-19)
(0.000788243 6.03396e-06 0)
(4.41509e-05 7.67496e-05 -1.71728e-19)
(0.000173177 0.000331077 1.08208e-18)
(0.000790117 3.19765e-05 1.18025e-23)
(0.00106857 0.000193986 -6.6901e-19)
(0.00108451 0.000117937 0)
(3.54678e-06 1.13028e-05 2.5127e-19)
(2.48565e-05 -2.01107e-05 -1.94501e-19)
(0.000649183 3.11509e-05 6.89027e-21)
(4.0335e-05 -0.000106042 0)
(0.00103156 0.000247932 9.50854e-19)
(0.00502751 0.00974584 -2.83664e-19)
(0.0031175 0.00962282 1.2737e-18)
(7.83301e-05 -0.000119603 -1.91535e-19)
(7.99839e-05 -8.21904e-05 1.86141e-18)
(0.00118948 0.000225255 1.67011e-19)
(0.00133148 0.00106625 2.34286e-19)
(0.000823039 5.11817e-06 -7.35599e-19)
(0.000215607 0.000943493 -2.39101e-19)
(0.000788522 0.000891007 -2.18764e-19)
(0.000790598 -6.72614e-06 0)
(9.71877e-05 0.000674074 0)
(9.79603e-05 0.000287249 -4.70107e-23)
(0.000741746 -2.55311e-05 -1.80118e-23)
(0.000808638 3.42153e-05 1.50653e-19)
(0.00261735 0.00204935 -1.23216e-18)
(0.00175484 0.00924161 -1.17313e-19)
(0.000825638 2.94905e-05 4.81578e-19)
(0.00635143 0.00403785 -1.75566e-19)
(0.00672164 0.0115518 -1.37429e-20)
(0.00473009 0.0078383 4.95252e-21)
(0.000799468 2.86795e-05 -2.17578e-18)
(0.000823257 3.14994e-05 -3.99764e-24)
(1.45361e-05 -1.13691e-05 -3.48355e-19)
(4.83849e-05 9.84827e-05 -3.49609e-19)
(7.84079e-05 0.000282357 8.7647e-19)
(1.49667e-05 1.99386e-05 4.9088e-19)
(9.06274e-05 0.00024011 3.70098e-19)
(0.000820113 3.54239e-05 0)
(0.00535185 0.00949396 1.93709e-20)
(0.00153718 0.000609563 -2.61965e-20)
(0.000821293 2.37653e-05 3.55826e-19)
(5.94938e-05 -9.39622e-05 0)
(0.00184187 0.000755065 5.46353e-19)
(1.31672e-05 1.06173e-05 -2.70415e-19)
(3.86274e-05 3.34159e-05 9.72761e-20)
(0.00131535 0.00137423 6.36969e-19)
(0.000748365 3.51068e-05 1.83313e-19)
(1.10572e-05 -3.11978e-06 -1.70371e-19)
(0.00204893 0.00154492 -1.05718e-18)
(0.000127807 0.000187785 -8.19476e-19)
(0.00392249 0.00847838 -1.0913e-18)
(1.00899e-05 2.75958e-06 8.82277e-20)
(0.00019513 -0.000277725 -1.24863e-18)
(6.47955e-05 -6.07561e-05 4.06051e-20)
(0.0015141 0.000965627 0)
(0.00102158 0.000142606 -4.20941e-22)
(0.000447507 0.000855017 -4.02542e-20)
(0.000801828 2.08338e-05 -2.31589e-19)
(8.70489e-05 0.000194336 7.3644e-19)
(4.97636e-05 -7.10739e-05 4.04431e-19)
(2.17387e-05 1.86208e-05 -9.48017e-20)
(3.75687e-05 0.000103193 -3.2059e-19)
(0.000197409 -0.000346881 -5.40541e-19)
(0.00323741 0.00343587 2.93916e-21)
)
;

boundaryField
{
    back
    {
        type            empty;
    }
    ingreso
    {
        type            fixedValue;
        value           uniform (0.0008 0 0);
    }
    salida
    {
        type            zeroGradient;
    }
    front
    {
        type            empty;
    }
    defaultFaces
    {
        type            noSlip;
    }
}


// ************************************************************************* //
