/*--------------------------------*- C++ -*----------------------------------*\
  =========                 |
  \\      /  F ield         | OpenFOAM: The Open Source CFD Toolbox
   \\    /   O peration     | Website:  https://openfoam.org
    \\  /    A nd           | Version:  7
     \\/     M anipulation  |
\*---------------------------------------------------------------------------*/
FoamFile
{
    version     2.0;
    format      ascii;
    class       volVectorField;
    location    "2.5";
    object      U;
}
// * * * * * * * * * * * * * * * * * * * * * * * * * * * * * * * * * * * * * //

dimensions      [0 1 -1 0 0 0 0];

internalField   nonuniform List<vector> 
591
(
(0.000826809 -3.70864e-05 1.3037e-18)
(0.00072453 -5.27426e-05 -7.07888e-19)
(0.00082927 -3.64395e-05 6.09175e-20)
(0.000820654 1.51383e-05 -1.60566e-19)
(0.000818244 2.08915e-05 2.41808e-19)
(0.000523155 -2.98123e-06 -1.50866e-19)
(0.000484829 -0.000334558 8.63282e-19)
(0.0008023 -1.92078e-05 2.25749e-18)
(0.00538352 0.00243309 1.06656e-18)
(0.000790489 -2.51097e-05 2.54926e-18)
(7.73498e-05 0.000180325 1.31317e-18)
(0.000869521 0.0012399 1.01866e-20)
(0.000733168 1.73043e-05 1.40212e-18)
(0.00171 0.00265717 -8.43705e-19)
(0.000790421 8.50947e-05 -4.77126e-19)
(0.000199601 -0.000249832 3.40434e-22)
(0.000132428 0.000646913 7.61703e-19)
(0.000892968 5.23524e-05 -5.33529e-19)
(0.00201855 0.000507961 5.11588e-19)
(0.00129375 0.000308916 -2.70326e-19)
(0.000771419 4.78839e-05 3.96168e-19)
(0.00493618 0.00755338 7.57542e-20)
(4.61031e-05 8.34824e-05 2.92969e-19)
(0.000811009 -1.82367e-05 -4.80015e-19)
(2.10574e-05 -2.86226e-05 3.88538e-19)
(0.000866593 2.73011e-05 0)
(9.51405e-05 0.000468116 1.73046e-19)
(0.000501529 3.55864e-05 -1.93653e-19)
(0.000686418 8.74603e-05 1.22659e-18)
(0.000819944 -0.000112964 6.29579e-19)
(7.1857e-05 2.25004e-06 6.25975e-24)
(5.44443e-05 -5.85001e-05 3.81375e-19)
(5.03801e-05 -5.85908e-06 -5.02381e-20)
(6.17954e-05 -4.73252e-06 0)
(6.505e-05 -1.91979e-05 1.22265e-18)
(0.00113722 0.000173946 1.96133e-19)
(4.53469e-05 -8.96053e-06 4.84258e-20)
(0.00079859 -3.11756e-06 1.43259e-22)
(4.48504e-05 5.81889e-05 2.8767e-19)
(8.92375e-05 -0.000163021 -9.24663e-19)
(0.000498368 -0.000147065 1.03744e-18)
(3.83341e-05 -1.17742e-05 4.92556e-20)
(0.000775229 -1.05514e-05 -1.66928e-18)
(0.00082695 -3.75511e-05 -7.27178e-19)
(2.88075e-05 -1.40292e-05 0)
(6.78572e-05 1.38257e-05 9.22539e-20)
(0.000876852 0.00443154 9.78456e-19)
(9.01446e-05 2.75509e-05 9.3525e-20)
(0.000775549 0.000117461 0)
(0.000346925 -9.8178e-05 7.34724e-19)
(0.000363398 0.000281433 5.5421e-21)
(0.000384039 9.40156e-05 -1.08661e-18)
(0.0057119 0.00891034 -6.77083e-19)
(0.0057514 0.00891487 1.05924e-20)
(0.00600523 0.00949929 1.8118e-18)
(0.000804067 -9.50698e-05 0)
(7.85877e-05 4.2113e-05 0)
(0.000357106 2.37763e-05 -4.46761e-23)
(7.7346e-05 1.8869e-05 -3.74956e-19)
(0.000969316 -4.16275e-05 0)
(0.000582084 2.82358e-05 3.42495e-19)
(0.000720302 7.4279e-05 2.33063e-18)
(0.00071318 -1.2025e-05 -5.82096e-19)
(0.000529717 1.28979e-05 -3.4073e-19)
(0.00166044 0.000532174 5.77755e-19)
(0.000831689 -1.45676e-05 -1.21767e-18)
(0.00071591 7.72375e-05 -5.50989e-19)
(9.97271e-05 9.31769e-06 -1.87706e-19)
(0.000824509 0.00244665 0)
(0.000782851 4.61674e-05 0)
(0.000680486 9.27757e-06 -1.48754e-18)
(4.78257e-05 2.22181e-05 0)
(0.000275664 0.000276573 3.5384e-19)
(5.83273e-05 -2.53722e-05 0)
(5.46802e-05 -8.83311e-06 1.72678e-19)
(4.30934e-05 -6.58452e-05 -3.64508e-20)
(0.000747898 1.4888e-05 2.62526e-19)
(5.49251e-05 1.60767e-05 0)
(0.000767411 0.000101869 4.76284e-19)
(0.00072886 0.000299825 2.2833e-19)
(0.000949915 6.41917e-05 -4.31416e-20)
(5.30214e-05 3.12079e-05 -4.89348e-20)
(4.73203e-06 -5.64819e-05 0)
(0.000411169 0.000227584 1.84245e-19)
(-1.41987e-06 4.31161e-05 0)
(0.000698088 -9.99749e-05 -6.47978e-19)
(0.000528148 -8.00993e-05 0)
(8.08784e-05 5.40019e-06 -1.88817e-19)
(2.0886e-06 -7.37811e-05 0)
(0.000791232 0.000218678 -3.69758e-19)
(2.83517e-06 -3.52483e-05 0)
(0.000406589 0.000321545 -1.00659e-23)
(0.00049343 0.000117434 0)
(0.000780148 2.3967e-05 3.3335e-23)
(1.48347e-06 3.00126e-05 -4.56694e-20)
(0.000418434 2.85352e-05 1.90959e-18)
(0.000999917 8.26641e-05 4.51177e-20)
(0.00108541 -1.68319e-06 6.96584e-22)
(0.000744698 0.000640785 2.88837e-19)
(-2.58709e-06 7.99171e-05 0)
(4.10519e-06 -0.000150213 -3.38207e-19)
(-7.70054e-07 -0.000254764 -1.18998e-18)
(-7.41802e-06 0.000121597 -6.44647e-19)
(0.000810972 -3.47253e-06 0)
(-7.30903e-06 0.000153521 0)
(0.00075757 -5.64806e-05 2.33398e-18)
(0.000671053 9.14312e-05 1.61711e-18)
(0.000388676 -2.86114e-05 0)
(6.49751e-05 0.000236593 -9.66322e-19)
(-2.32283e-06 0.000236026 5.36146e-19)
(0.000120601 0.00052634 6.77204e-19)
(0.000267959 0.000159982 -1.00433e-18)
(0.00083703 -4.21213e-05 1.45992e-19)
(0.00027623 1.33496e-05 5.74753e-19)
(-3.2899e-06 5.68837e-05 0)
(8.99357e-05 0.000340226 -1.17769e-18)
(0.000307653 0.00032877 -1.75054e-19)
(6.24497e-06 -0.000109138 1.5879e-19)
(0.000606903 0.000728401 0)
(0.000347375 0.000384946 6.21868e-20)
(0.00084682 -1.94568e-06 1.11722e-18)
(0.000532258 -0.000106367 -2.92588e-18)
(-5.07219e-07 -0.000202486 0)
(0.000816616 -1.04656e-05 -1.20314e-19)
(0.000309498 -2.94089e-05 1.34664e-18)
(0.0028485 0.000817041 -3.67587e-19)
(-1.89172e-05 0.000187083 -6.62809e-19)
(-4.23784e-05 0.000235936 1.75051e-18)
(0.000944824 1.75446e-05 -4.21051e-20)
(7.7976e-05 1.53516e-06 -8.11337e-19)
(0.000769909 5.98484e-05 -4.20846e-19)
(0.00100459 1.91276e-05 -4.43683e-20)
(0.000103131 0.000429497 -6.45783e-19)
(0.00045714 8.62336e-05 -5.34809e-19)
(6.31038e-05 -7.21017e-07 1.69055e-19)
(0.000891819 -4.2881e-05 -1.14632e-18)
(0.00159055 0.000302494 -1.19922e-18)
(-7.50287e-06 9.23927e-05 5.3669e-19)
(0.000765995 5.34501e-06 -5.40894e-19)
(0.000868922 0.000518998 -8.50426e-20)
(0.000154253 0.000927483 0)
(0.000534616 6.94888e-05 0)
(0.000251099 6.19119e-05 -1.73124e-18)
(7.14119e-05 6.93103e-05 -1.488e-18)
(3.88618e-05 2.71083e-05 0)
(0.00463854 0.00845979 -1.42306e-20)
(0.00466662 0.00846258 7.23259e-20)
(0.0048296 0.00870144 -5.29321e-20)
(0.00429299 0.00881198 0)
(0.00421576 0.00903438 5.48811e-19)
(0.00463907 0.00842187 -1.81443e-19)
(0.00414478 0.00852881 5.65634e-19)
(0.00462888 0.00850054 0)
(0.00393098 0.00853194 8.08904e-19)
(0.00460639 0.008515 2.13359e-19)
(0.000829437 -3.86401e-05 -1.44644e-18)
(0.000691468 9.25765e-05 0)
(0.000217224 8.46738e-05 1.38295e-19)
(6.13986e-05 2.35518e-05 9.44168e-20)
(8.86756e-05 5.62241e-05 7.36392e-19)
(0.000118151 5.42248e-05 -3.69664e-19)
(0.000113943 1.95683e-05 0)
(6.01371e-05 9.44144e-06 8.85861e-20)
(0.000203062 0.000150724 0)
(0.000178116 6.8745e-05 -5.67165e-20)
(0.000328639 0.00023109 -5.51326e-21)
(6.48139e-05 5.37637e-05 -4.73961e-19)
(0.000103056 3.9721e-05 -9.23172e-20)
(0.000100079 7.41515e-05 1.4206e-21)
(0.000244469 0.000369699 -7.21165e-19)
(0.000170735 0.0011376 0)
(5.12543e-05 6.08434e-05 3.71507e-19)
(0.000273682 0.00184955 0)
(0.000203883 0.000261629 7.62872e-19)
(4.6324e-05 -8.31147e-06 1.20516e-19)
(0.000453151 0.00017198 -1.86535e-19)
(0.00082014 3.31711e-05 -2.00899e-18)
(5.52805e-05 1.79494e-06 1.27062e-23)
(0.000157179 4.8193e-05 2.42919e-19)
(0.000236194 0.000117665 -9.73873e-20)
(0.000848436 0.000670704 3.62849e-19)
(0.000620805 0.00163543 -9.99787e-21)
(0.000422791 0.0013224 -1.02181e-20)
(0.000996731 0.000543253 0)
(0.000116873 -9.86676e-06 1.21003e-18)
(0.000132396 3.26575e-05 -4.79699e-20)
(0.000398828 -0.000183354 -1.23328e-18)
(0.000790635 4.41581e-05 0)
(0.000180109 5.84259e-05 3.92038e-19)
(0.000203175 0.0014232 0)
(0.00101415 0.000712246 -7.91218e-20)
(0.000795755 4.12471e-05 -1.97653e-19)
(0.00010095 -1.77499e-05 -3.24568e-19)
(0.000788885 0.000276946 -2.2532e-20)
(9.54709e-05 -2.63873e-05 -6.47209e-19)
(0.000224834 0.00018695 9.32638e-20)
(0.000222815 0.000312416 -3.7352e-19)
(0.000847322 0.000220879 0)
(0.000769668 4.5867e-07 0)
(0.000260687 0.000154341 1.90296e-19)
(0.000235807 2.81353e-05 -1.72147e-23)
(0.000184266 0.000215895 0)
(0.00027309 0.000624404 -5.99813e-21)
(0.000322416 1.93911e-05 0)
(0.000280206 0.000572268 0)
(0.000117713 9.78928e-05 -1.45824e-21)
(0.00075504 -4.27403e-05 -1.01291e-18)
(0.000918788 -9.51203e-06 8.39373e-19)
(0.000137477 7.62021e-05 -1.62274e-19)
(0.000917068 0.000153263 9.23105e-20)
(0.000805236 5.21255e-05 3.55419e-19)
(0.000782754 4.28572e-05 -3.18109e-19)
(0.000968055 0.000398252 0)
(0.000414696 0.000127311 6.7612e-19)
(0.000859865 0.000303646 2.26502e-20)
(0.000536775 0.000173728 0)
(0.00027946 0.000432332 4.43462e-19)
(0.000251418 0.000230849 -9.13975e-20)
(0.0010714 0.000378952 -8.47377e-19)
(0.000573763 0.000126306 -1.94142e-19)
(0.000787346 0.000151487 -7.91717e-21)
(0.000800293 3.51822e-05 1.00857e-19)
(0.000123866 -0.000102081 -2.14238e-18)
(0.000709558 0.000365064 2.37535e-19)
(0.000612492 8.31191e-05 2.4937e-20)
(0.000670734 0.000271058 9.64932e-24)
(0.000688136 0.000429878 -4.43012e-19)
(0.000815602 1.8746e-05 9.7132e-20)
(7.97379e-05 9.30537e-05 0)
(0.000616985 0.000438642 -5.04729e-20)
(0.000183542 0.000118871 0)
(0.000363741 0.000520754 -2.82783e-19)
(0.000305814 0.000185993 0)
(0.000640821 0.000218247 3.84867e-19)
(0.000612814 0.000284619 -4.73692e-20)
(8.22696e-05 0.000108928 6.68831e-19)
(0.000952739 8.56574e-05 -1.69925e-18)
(6.92612e-05 3.08888e-05 2.78525e-19)
(0.000979565 0.000108036 -1.75714e-18)
(0.000699238 -7.37596e-05 1.72527e-19)
(0.000768504 -1.9914e-05 2.04713e-18)
(0.000794035 1.41153e-05 -1.42395e-19)
(0.000666763 7.77251e-05 0)
(0.000924653 8.39893e-06 9.66197e-19)
(0.000904632 0.000249656 -4.61837e-19)
(0.000736786 9.19643e-05 -5.18545e-19)
(0.00074255 0.000233947 -9.55054e-20)
(0.000256993 -7.54402e-05 -2.25134e-18)
(0.000704979 9.70811e-05 9.42787e-19)
(0.000534757 0.000565596 0)
(0.000144872 -7.88275e-05 0)
(0.00114588 0.000425616 5.33626e-19)
(0.000863722 -0.000282477 -3.49185e-18)
(0.00121126 0.000420398 6.17768e-19)
(0.00125345 0.000773289 -6.77985e-20)
(0.000784042 4.28752e-05 -2.28602e-19)
(0.000773931 0.000108739 -1.52089e-18)
(0.000727774 0.000143026 1.68411e-18)
(0.000712429 -9.36653e-05 1.03737e-19)
(0.00064682 0.000344158 -4.77134e-20)
(0.000117399 0.000161858 1.30461e-22)
(0.000671804 -7.46483e-05 2.87043e-19)
(0.000277836 -0.000145678 -7.97604e-19)
(0.000587537 0.000202229 0)
(0.00065316 3.79375e-05 1.06301e-19)
(0.000634986 1.39785e-06 -4.06787e-19)
(0.000371272 0.000186132 4.24862e-20)
(0.000750656 0.000487039 -1.79245e-19)
(0.000159047 9.79029e-05 -2.17526e-25)
(0.000781997 0.000369705 0)
(0.000935884 0.000317696 4.50158e-20)
(0.000689982 -0.000117021 -6.64685e-19)
(0.000331859 0.000105838 5.37309e-19)
(0.000868135 0.000398796 0)
(5.93776e-05 4.04096e-05 1.44802e-19)
(0.000457513 0.000273576 2.31636e-19)
(0.000436201 -8.42014e-05 -7.68165e-19)
(0.000203209 -0.000118688 -1.1464e-18)
(0.000719882 -5.59985e-05 -5.16806e-19)
(0.000758148 -0.000117513 -2.10194e-19)
(0.000509147 0.000779662 -1.24744e-18)
(0.000802637 9.0936e-05 -7.12672e-20)
(0.000794161 -0.000170844 1.36038e-18)
(0.000644838 0.000108157 2.44741e-20)
(0.000498997 0.000225197 -1.79378e-19)
(4.76889e-05 -2.84581e-05 -9.48254e-20)
(0.000229698 -2.0438e-05 2.58371e-18)
(4.07687e-05 3.67214e-07 -2.10933e-19)
(0.000763059 8.71329e-05 3.8836e-19)
(0.000617515 0.000153672 0)
(0.000213367 -3.56512e-05 -1.13042e-18)
(0.000133711 2.65833e-05 3.38052e-19)
(0.000155552 -3.38335e-05 -4.61003e-23)
(0.000769076 0.00010548 -3.38418e-19)
(0.000157235 -7.71533e-06 0)
(0.000553792 0.000250965 0)
(0.000111837 0.000340971 -3.92602e-19)
(0.000768163 0.000196156 2.23346e-18)
(3.34641e-05 1.51783e-06 0)
(0.000774131 -8.46303e-05 0)
(5.9484e-05 -2.77612e-05 0)
(0.00083519 3.10831e-05 -4.75838e-21)
(0.000809546 -7.35993e-05 0)
(0.00454566 0.00841677 8.79849e-20)
(0.00452706 0.00852471 1.41817e-19)
(0.000832332 1.35635e-05 0)
(0.000732869 -7.50597e-05 8.67028e-19)
(0.0001542 0.000143199 1.61561e-19)
(0.000962486 4.21652e-05 8.53507e-19)
(0.000135538 0.000121727 2.53809e-20)
(0.000697517 -9.58493e-05 6.71466e-19)
(4.41326e-05 1.47204e-05 0)
(4.21758e-05 -2.0553e-05 -4.85682e-20)
(0.000853736 0.000114208 -5.16423e-19)
(5.32141e-05 -3.89156e-05 -7.25047e-19)
(0.000726718 0.000136954 -4.58554e-20)
(0.000166979 0.000175818 -2.03668e-19)
(0.000791337 3.32618e-05 0)
(0.00347765 0.00824433 -7.06824e-22)
(0.000170026 0.000763411 3.61074e-19)
(0.000140983 -4.55333e-05 -9.86295e-19)
(8.26696e-05 -3.72136e-05 -1.26382e-18)
(0.000871506 2.19377e-05 2.04633e-20)
(0.000541127 0.000422733 0)
(0.000380152 0.000412422 -2.75711e-19)
(0.000131545 -4.25028e-05 1.28032e-18)
(0.000830204 6.67881e-06 8.34378e-20)
(5.36197e-05 1.40696e-06 4.40289e-19)
(0.000608791 -4.76663e-05 1.26886e-18)
(0.000747065 -1.56774e-05 -6.44202e-19)
(0.000103177 -5.25356e-05 1.84987e-18)
(0.000824482 1.02629e-05 1.10291e-23)
(0.000847414 1.82195e-05 -4.07782e-20)
(0.000766293 0.000133349 0)
(0.000743444 4.41061e-05 0)
(0.00532008 0.00806216 3.21137e-19)
(4.26636e-05 9.57128e-06 -1.29458e-19)
(0.000216518 -6.09445e-05 8.34084e-19)
(0.00069073 0.000121435 -7.47702e-19)
(4.61413e-05 -1.59594e-06 2.18064e-19)
(0.000551354 -1.28797e-05 -7.83827e-19)
(0.000642514 -5.42859e-05 1.65397e-18)
(0.000666009 0.000162155 -3.85087e-19)
(0.000767367 -9.67679e-05 3.87494e-19)
(0.000115471 -2.53247e-05 1.20773e-18)
(0.00053183 2.52211e-05 -3.48082e-19)
(0.000837048 8.88702e-05 0)
(0.000514464 0.000309034 4.56007e-20)
(0.00093213 1.39342e-05 -9.95683e-19)
(4.07553e-05 -8.69835e-06 9.86019e-19)
(0.00073855 -4.37911e-05 1.01817e-18)
(0.000737251 -0.000128336 -1.0314e-18)
(0.000674115 4.6713e-05 -6.09247e-19)
(0.000469707 -2.69497e-05 -5.6916e-19)
(0.00453002 0.00842845 2.6342e-19)
(0.00414258 0.00868904 -3.42198e-19)
(0.00404402 0.00891768 3.25751e-19)
(0.00459636 0.00845787 3.55496e-19)
(0.000825019 8.98424e-06 1.545e-19)
(0.0044768 0.00847931 0)
(0.00448825 0.00844879 -4.96812e-19)
(6.71545e-05 -8.98219e-07 -1.07874e-18)
(0.00418365 0.00867445 -8.67103e-20)
(0.00417761 0.00864839 -3.30487e-19)
(0.00570388 0.00872365 0)
(0.00555316 0.00889758 5.61308e-20)
(0.00591522 0.00879543 0)
(0.00550567 0.0088798 1.98315e-19)
(0.00603949 0.0091108 3.18316e-19)
(0.00548626 0.00896771 4.89446e-20)
(0.00605546 0.00932369 -9.25549e-19)
(0.00550277 0.00902438 6.80754e-20)
(0.00347524 0.00880169 -2.19267e-19)
(0.00422623 0.00872425 1.29498e-20)
(0.00412901 0.0087279 8.08308e-20)
(0.00433502 0.00855775 4.88866e-20)
(0.000837034 0.000164289 4.83853e-20)
(2.48573e-05 2.64915e-06 0)
(0.000610011 -0.00013503 0)
(0.000805203 4.71699e-05 0)
(0.00241198 0.0010521 4.25353e-21)
(0.000518834 -4.94003e-06 1.86137e-19)
(5.08289e-05 1.02873e-05 4.91491e-20)
(2.79682e-05 -3.075e-05 1.78893e-18)
(0.000827428 3.11528e-05 0)
(3.59101e-05 1.81968e-05 -2.07637e-19)
(0.000147995 0.000233033 0)
(4.40999e-05 -7.56497e-07 0)
(3.67518e-05 -1.91139e-06 0)
(0.000792129 0.000132533 1.22643e-20)
(0.000850126 4.17021e-05 1.89615e-19)
(4.1348e-05 0.00037748 8.2354e-22)
(0.000162053 0.000278611 -1.99409e-18)
(0.000580146 0.000352201 -9.28044e-20)
(0.000836614 0.000120924 6.31328e-19)
(0.000726682 -0.000600367 7.1676e-19)
(0.00031179 0.00108229 0)
(0.000489463 0.000488332 2.8695e-18)
(0.0001101 0.000145373 -1.93897e-18)
(4.88316e-05 1.07242e-06 0)
(0.000867519 2.22103e-06 3.86912e-20)
(2.17187e-05 4.80264e-05 1.78063e-18)
(0.000882284 3.03778e-05 2.91589e-19)
(0.000141605 -0.000428454 4.07557e-18)
(0.00090784 4.66101e-05 -2.91584e-19)
(0.00166769 0.00010585 7.89377e-19)
(5.01857e-05 -1.46713e-05 8.94035e-20)
(4.55435e-05 1.14453e-05 -9.29421e-19)
(4.46323e-05 0.000178732 0)
(0.000822109 0.000127792 6.33169e-19)
(0.000468835 0.000375373 2.5674e-19)
(0.000900849 1.65243e-05 -4.18983e-20)
(0.000705392 -1.92187e-05 2.75839e-19)
(0.000628069 -0.000224384 0)
(0.00569539 0.00882297 -1.52104e-19)
(0.00571719 0.00888511 3.85196e-19)
(0.00564284 0.00887132 -7.97052e-19)
(0.00560102 0.00878975 -1.06483e-19)
(4.61527e-05 0.000112745 8.64932e-19)
(0.000872435 2.89366e-05 -1.50027e-22)
(0.00562851 0.00886727 -3.71635e-19)
(0.005781 0.00887295 4.99694e-19)
(0.00563397 0.00882243 -5.11198e-19)
(0.00558412 0.00886098 -8.37631e-20)
(0.000127734 0.000636333 -2.18706e-20)
(0.000211703 -0.000159304 -8.60837e-19)
(0.000948811 -4.61736e-06 -8.10761e-19)
(0.000692529 0.000215315 0)
(0.000544947 -3.9416e-05 0)
(0.000185608 0.000392238 3.64064e-19)
(0.000606889 0.000601616 -5.75227e-19)
(2.77876e-05 -3.4014e-06 1.93199e-19)
(0.000209235 0.000462745 -7.99259e-19)
(0.000980726 0.000951356 -1.22258e-19)
(0.000710421 0.000175662 0)
(0.000752916 0.000164482 1.41202e-19)
(0.00582604 0.00671673 1.24423e-18)
(0.000648402 0.0011042 8.96122e-20)
(4.76649e-05 4.73984e-05 -8.06489e-20)
(0.000906468 4.91714e-07 0)
(0.000859947 9.26305e-06 -3.80651e-20)
(4.65801e-05 7.81316e-06 -2.1287e-19)
(4.11999e-05 9.3262e-06 2.08895e-19)
(0.000798265 2.62908e-05 5.75412e-19)
(0.000938813 0.00011769 7.136e-19)
(0.000800215 0.000105966 0)
(0.000283271 -0.000230422 -4.3422e-19)
(0.000857925 0.000140303 4.17085e-19)
(4.72949e-05 -9.36402e-05 2.19898e-19)
(0.00159462 0.000354803 -2.66837e-18)
(0.000818341 3.52082e-06 0)
(0.000759293 0.000115363 4.0051e-19)
(9.55511e-05 0.00040377 0)
(0.00061383 0.00784178 5.04016e-19)
(0.000476535 0.000528632 -1.30711e-18)
(0.000511818 0.000944704 -1.98939e-19)
(0.000847757 2.44709e-05 -1.56474e-19)
(2.15403e-05 3.54571e-05 0)
(0.000900001 8.41591e-05 6.54784e-19)
(0.00440905 0.008723 1.26592e-19)
(0.0042301 0.00869285 5.34038e-20)
(0.00437946 0.00843144 4.45757e-19)
(0.00450662 0.0085299 -3.58498e-19)
(0.00566989 0.00887751 1.06069e-19)
(0.00408326 0.00846089 2.77653e-20)
(0.00498714 0.00826448 -7.07003e-19)
(0.00426736 0.00869238 6.91635e-21)
(0.00463972 0.00823213 6.60334e-19)
(0.00432061 0.00871723 -1.41882e-19)
(0.00442616 0.00830354 0)
(0.00433389 0.00874484 -1.4106e-19)
(0.00433461 0.00830845 6.12137e-19)
(0.00435341 0.00880231 1.2151e-19)
(0.00432765 0.00833761 0)
(0.00457694 0.0084244 1.67255e-19)
(0.00403528 0.00872964 7.16232e-19)
(0.00454643 0.00853557 -5.68092e-19)
(0.00454458 0.00852856 4.06214e-19)
(0.00417669 0.00864379 3.37822e-19)
(0.00565367 0.00899767 -3.71008e-21)
(0.00443741 0.00866754 3.82343e-20)
(0.00571541 0.00901777 0)
(3.40677e-05 1.10191e-05 -2.05617e-19)
(0.00247028 0.00681071 2.48121e-19)
(0.000828259 6.35228e-06 1.17834e-19)
(0.000841223 2.19891e-05 0)
(4.87859e-06 5.55936e-06 -4.32226e-19)
(0.000128969 -0.000208894 7.47916e-19)
(2.22612e-05 7.42534e-05 2.25698e-18)
(0.000792281 0.000177565 -9.76014e-20)
(0.000525775 3.8448e-06 7.60554e-19)
(5.54029e-06 -6.46477e-06 3.35731e-19)
(2.95826e-05 -5.33926e-05 -1.9975e-18)
(0.000527744 2.18371e-06 1.75854e-19)
(0.000746081 9.29613e-05 -3.23766e-20)
(0.000524351 -9.14428e-06 1.59025e-19)
(0.000440435 0.000693563 0)
(0.000153635 -0.000147891 1.2471e-18)
(0.000829823 2.57227e-05 1.63947e-19)
(2.80365e-05 3.1405e-05 0)
(0.000105902 0.000550821 -6.82524e-19)
(0.000632644 0.000485238 1.39406e-18)
(0.00031751 0.000721716 0)
(0.000522429 4.02465e-06 0)
(0.000529933 0.000141947 1.26343e-18)
(3.0584e-05 4.84526e-05 -3.79995e-18)
(2.53081e-05 1.26434e-05 4.04633e-19)
(0.000107311 0.000156794 0)
(7.13615e-05 -4.79463e-05 0)
(8.82687e-05 0.000128763 2.16836e-19)
(0.000879074 0.000187325 3.79161e-19)
(0.000713499 -0.000115422 -1.48657e-18)
(3.2821e-05 4.30957e-05 0)
(0.000655323 0.000166418 -6.50923e-20)
(0.000531895 3.39012e-06 -1.68734e-19)
(0.000929087 -8.1293e-06 1.12775e-18)
(0.000237045 0.000540397 6.83249e-19)
(0.000820449 0.00012536 0)
(4.11282e-05 -3.76403e-05 5.82952e-19)
(4.28809e-06 -2.02136e-05 -3.46476e-19)
(0.00119387 -4.07752e-05 0)
(0.000804967 0.00200875 0)
(0.00107789 -0.000219674 0)
(0.000954192 0.000198351 4.62138e-19)
(0.000866871 5.30225e-06 -3.01759e-19)
(0.000879787 0.000132266 -7.32341e-19)
(0.000524556 6.17403e-05 0)
(4.93993e-05 8.04434e-05 -1.85856e-19)
(0.000172744 0.00033186 1.17046e-18)
(0.000760833 -2.58476e-06 -2.65482e-22)
(0.00105422 0.000184525 -7.24832e-19)
(0.00105615 0.000129635 0)
(3.54895e-06 1.73858e-05 2.71855e-19)
(3.11736e-05 -2.45348e-05 -2.10399e-19)
(0.000789474 8.15164e-05 7.52792e-21)
(6.36102e-05 -0.000125714 0)
(0.0010049 0.000270195 1.02912e-18)
(0.00556914 0.00944692 -3.51084e-19)
(0.0028064 0.00937588 1.54727e-18)
(0.000108552 -0.000126514 -2.07199e-19)
(9.89826e-05 -8.9479e-05 2.01229e-18)
(0.00115113 0.00024719 1.81699e-19)
(0.00124703 0.00102056 2.5383e-19)
(0.00079981 2.27434e-05 -7.8353e-19)
(0.000222704 0.000906212 -2.58442e-19)
(0.000768465 0.000873029 -2.34847e-19)
(0.000541522 -6.46167e-05 0)
(0.000134071 0.000767587 0)
(0.000103393 0.000286612 -1.44275e-22)
(0.000857545 -1.15377e-05 -1.59366e-22)
(0.000825961 -3.65619e-05 1.63584e-19)
(0.00243954 0.00168236 -1.31039e-18)
(0.00130996 0.00885773 -1.4222e-19)
(0.000684345 5.07738e-05 5.18572e-19)
(0.00595138 0.00422303 -2.04295e-19)
(0.00535303 0.00931897 -6.6449e-20)
(0.00399295 0.00841056 1.90685e-20)
(0.00071665 0.000156988 -2.32775e-18)
(0.000809634 2.86659e-05 -2.04147e-23)
(1.89194e-05 -1.623e-05 -3.76767e-19)
(5.67503e-05 0.00010373 -3.7828e-19)
(9.26332e-05 0.000278484 9.48119e-19)
(1.85419e-05 2.45675e-05 5.31125e-19)
(0.000100329 0.000241146 4.00335e-19)
(0.000775818 9.30118e-05 0)
(0.0052205 0.00939496 -1.07243e-20)
(0.00132308 0.000521508 -2.6775e-20)
(0.000805346 9.55587e-06 3.83323e-19)
(8.23702e-05 -0.000103274 0)
(0.00191288 0.000615499 5.92045e-19)
(1.6456e-05 1.42423e-05 -2.92592e-19)
(4.27606e-05 3.76648e-05 1.05248e-19)
(0.00128748 0.00144177 6.9324e-19)
(0.000859252 2.9823e-05 1.9326e-19)
(1.7435e-05 -4.68409e-06 -1.8433e-19)
(0.00194411 0.00138658 -1.16343e-18)
(0.000133003 0.000193931 -8.8419e-19)
(0.00441523 0.00855901 -1.19887e-18)
(1.548e-05 4.02529e-06 9.54585e-20)
(0.000203665 -0.000499874 -1.33328e-18)
(7.14519e-05 -6.28695e-05 4.39175e-20)
(0.00158185 0.000864272 0)
(0.000986554 0.00015168 -5.67657e-22)
(0.000402165 0.000844324 -4.35118e-20)
(0.000845105 1.80083e-05 -2.48137e-19)
(8.73283e-05 0.000201113 7.94685e-19)
(6.68794e-05 -7.8941e-05 4.37553e-19)
(2.61762e-05 2.14243e-05 -1.02576e-19)
(4.38336e-05 0.000111326 -3.46723e-19)
(0.000241295 -0.000307245 -5.85325e-19)
(0.00339432 0.00345577 4.46358e-21)
)
;

boundaryField
{
    back
    {
        type            empty;
    }
    ingreso
    {
        type            fixedValue;
        value           uniform (0.0008 0 0);
    }
    salida
    {
        type            zeroGradient;
    }
    front
    {
        type            empty;
    }
    defaultFaces
    {
        type            noSlip;
    }
}


// ************************************************************************* //
