/*--------------------------------*- C++ -*----------------------------------*\
  =========                 |
  \\      /  F ield         | OpenFOAM: The Open Source CFD Toolbox
   \\    /   O peration     | Website:  https://openfoam.org
    \\  /    A nd           | Version:  7
     \\/     M anipulation  |
\*---------------------------------------------------------------------------*/
FoamFile
{
    version     2.0;
    format      ascii;
    class       surfaceScalarField;
    location    "107.5";
    object      phi;
}
// * * * * * * * * * * * * * * * * * * * * * * * * * * * * * * * * * * * * * //

dimensions      [0 3 -1 0 0 0 0];

internalField   nonuniform List<scalar> 
1111
(
7.14106e-09
1.28732e-08
-1.60602e-08
-3.95405e-09
7.07142e-09
-1.17707e-08
1.18404e-08
-1.47332e-08
5.87136e-09
8.76063e-09
1.01247e-10
9.87979e-10
-1.14695e-09
-1.43956e-08
1.45546e-08
-1.43626e-08
1.41859e-08
1.16463e-09
-1.60895e-09
1.49158e-08
2.12171e-09
-2.5748e-09
9.31408e-09
-9.22254e-09
2.48326e-09
-6.72404e-09
-1.26107e-08
1.25959e-08
6.73881e-09
-5.01831e-08
-2.61111e-08
7.62942e-08
-8.09351e-09
7.72997e-09
7.43497e-09
3.23711e-09
3.79373e-10
-3.31515e-09
-3.01329e-10
1.58732e-08
-1.62715e-08
-2.327e-08
2.36683e-08
-9.66685e-09
-7.90065e-09
8.80278e-09
8.76473e-09
-3.55945e-08
1.77356e-08
-3.23799e-08
5.02388e-08
9.49216e-09
-1.96056e-09
-1.42556e-08
-2.85592e-10
1.28233e-09
-2.62253e-09
1.6258e-09
-3.96867e-09
1.32923e-08
1.97373e-09
-1.12973e-08
8.80857e-09
-2.69579e-09
-1.50599e-08
8.94712e-09
3.71638e-08
-2.9833e-08
-7.33088e-09
-1.94187e-08
2.82185e-10
1.72292e-08
1.90737e-09
-1.08235e-09
4.23548e-09
-1.78356e-08
1.46825e-08
-6.1228e-08
-3.9613e-09
6.51893e-08
1.35326e-10
-1.09519e-09
-3.22187e-10
1.28205e-09
-1.80523e-09
-1.36397e-08
-6.14171e-11
-2.07762e-10
1.48677e-10
1.20502e-10
-1.04122e-08
-8.64717e-09
1.32419e-08
5.81749e-09
6.83879e-10
-2.13759e-09
-8.21656e-09
9.67027e-09
8.81412e-09
7.35468e-10
-9.88437e-09
3.34779e-10
-2.86985e-09
-8.1035e-09
1.11768e-08
-2.03477e-10
1.1414e-08
-1.07401e-09
-1.53147e-09
-7.51708e-10
7.62762e-10
-3.2699e-11
2.16447e-11
-3.38979e-11
6.19119e-10
1.50227e-10
-7.35448e-10
-3.79119e-10
-4.03978e-11
4.10258e-10
9.25868e-12
-6.41179e-11
-7.06974e-10
1.16447e-10
6.54644e-10
-1.17389e-10
-6.98437e-10
1.01813e-09
-1.83691e-08
-2.06778e-09
-3.03952e-10
3.52828e-11
-1.10449e-10
1.33787e-08
-1.32468e-08
4.10363e-09
-3.3267e-10
5.1712e-10
3.00974e-10
-4.85425e-10
6.94357e-11
-1.08824e-09
9.60955e-10
5.78452e-11
-1.83278e-09
1.0694e-08
-1.1436e-08
-2.0965e-10
-1.3279e-10
3.84876e-11
-8.70898e-09
1.06301e-08
-1.00147e-08
1.22883e-08
-1.71359e-08
4.51156e-09
3.36039e-10
4.23291e-11
-1.27045e-10
-1.24934e-10
1.27623e-10
7.12234e-10
-7.70947e-11
-5.95084e-08
7.42299e-08
-1.47215e-08
9.67204e-10
-1.85484e-10
-1.0656e-09
2.83877e-10
1.1388e-09
1.03061e-08
-1.37128e-08
2.26788e-09
-1.93175e-09
7.90126e-09
-8.93832e-09
2.9688e-09
-6.79258e-09
5.55858e-09
5.73135e-09
-4.49735e-09
-7.88152e-09
-1.46347e-09
1.57035e-09
7.77464e-09
-1.82926e-10
-9.09128e-08
9.12989e-08
-2.03207e-10
-2.57672e-10
-8.9749e-08
9.01592e-08
-1.52595e-10
8.30785e-08
-1.49197e-09
1.1022e-10
-8.16968e-08
-2.73539e-09
-5.83802e-10
5.73234e-10
7.87966e-10
-3.93996e-10
3.88518e-09
-8.56153e-10
3.56367e-09
-6.5927e-09
-8.7684e-10
8.18979e-10
-1.49155e-08
6.57207e-09
1.00011e-08
1.07688e-09
-1.07865e-08
-2.91402e-10
-6.04808e-09
1.36216e-08
9.00997e-10
-8.47452e-09
1.43909e-08
-4.60118e-09
3.83352e-09
-1.36232e-08
1.53868e-08
1.672e-09
-1.63e-09
-1.91141e-10
-2.00752e-08
-7.4317e-09
2.7698e-08
1.45718e-08
-8.88987e-09
-1.84124e-09
8.07133e-09
-1.22782e-08
5.38732e-11
-9.97282e-12
-1.1095e-09
-3.61057e-08
-2.34026e-08
8.36617e-09
3.18772e-10
3.60332e-09
-6.96569e-09
1.13178e-08
6.27801e-09
-5.39404e-10
2.77234e-10
4.35591e-10
-1.73421e-10
5.66912e-09
-4.83506e-09
3.69607e-09
-4.53013e-09
-3.67032e-10
-5.76807e-10
2.36866e-10
5.71696e-10
-4.95647e-10
4.32215e-11
-6.5935e-10
5.82231e-10
-1.82697e-08
2.38642e-09
1.60697e-09
1.42763e-08
1.83692e-10
-6.24593e-10
-9.85034e-11
-4.24656e-09
-1.52045e-08
1.18133e-09
5.61901e-09
1.21211e-08
-5.23926e-09
-1.25009e-08
1.63768e-08
7.53531e-10
-1.58385e-08
-1.29183e-09
-6.19118e-10
3.99364e-10
4.96989e-10
-2.34977e-10
1.07663e-10
1.27314e-10
-7.51638e-09
-3.47522e-09
4.19902e-09
-1.72653e-10
2.76717e-10
-1.04065e-10
1.04108e-09
-1.56999e-08
-7.38198e-10
1.0149e-08
-1.12436e-08
-8.55666e-10
-1.91755e-10
1.29973e-08
4.47698e-09
-4.2077e-09
-1.32666e-08
4.62456e-11
7.23478e-09
-8.02504e-09
6.34884e-09
-1.56412e-09
-9.13799e-09
8.31766e-09
2.38445e-09
-1.96495e-09
7.01886e-10
-1.39414e-08
-8.91943e-11
-8.34584e-11
4.23336e-10
5.83296e-10
-8.88815e-09
7.83629e-10
1.72618e-08
-1.66864e-09
-1.18559e-08
1.3249e-08
-1.39312e-09
1.22884e-08
1.39142e-08
-1.5494e-08
-1.07085e-08
-4.48307e-10
8.5169e-10
-4.03383e-10
1.30063e-10
9.23645e-11
-2.22428e-10
-1.618e-10
7.30935e-10
-5.69135e-10
1.23727e-09
-9.87015e-10
-2.50257e-10
-1.04963e-08
9.96124e-10
9.50021e-09
1.84294e-09
-6.05667e-10
8.98232e-09
-1.54247e-08
7.95484e-09
-9.46325e-09
6.70608e-11
3.58265e-09
-4.126e-10
-2.22231e-09
2.28937e-09
-6.37536e-09
7.71228e-09
-1.33692e-09
-4.17237e-10
4.30147e-09
9.38679e-13
1.72526e-08
-1.44769e-08
-1.63689e-09
-6.21881e-09
5.47025e-09
-1.07586e-10
-1.71589e-10
5.69148e-09
-5.66098e-09
-3.0506e-11
6.81748e-09
4.58299e-09
-6.16922e-11
-1.58934e-08
1.04876e-08
1.76942e-08
5.83325e-09
8.21901e-09
8.16378e-09
-6.84871e-09
1.44912e-09
-1.19455e-08
1.01326e-10
1.58112e-09
-1.30193e-08
2.70933e-09
-4.19962e-10
1.10722e-08
-1.03187e-08
-2.96798e-10
-6.76257e-10
-1.38313e-08
7.83329e-09
6.66398e-10
9.89051e-12
-8.87919e-09
4.96719e-09
-3.00241e-08
-1.25209e-08
-2.85622e-09
1.54581e-09
1.41305e-08
1.11056e-08
-1.08523e-08
-1.43838e-08
1.53587e-08
-3.17923e-09
-1.21795e-08
1.59853e-09
4.02134e-09
-8.74903e-10
-8.69535e-10
-7.90753e-10
1.07568e-09
5.84607e-10
-2.06972e-10
3.24071e-10
3.18492e-10
6.21462e-08
-6.21725e-08
2.6238e-11
6.20655e-08
-6.23699e-08
3.04328e-10
8.37564e-10
6.47305e-08
-6.55578e-08
8.27353e-10
6.41224e-08
6.08121e-10
-2.23661e-10
-6.65033e-08
9.45489e-10
-6.20623e-08
6.19276e-08
1.34792e-10
1.31482e-09
-6.78181e-08
-6.22222e-08
1.59846e-10
1.27585e-08
-5.41807e-10
1.16171e-09
-3.69677e-09
3.07687e-09
2.76808e-10
-1.13879e-09
8.42489e-10
-4.86825e-10
1.34893e-09
-1.56614e-09
7.04037e-10
1.34174e-09
-1.40963e-09
5.79157e-11
-3.5289e-11
-3.46615e-09
2.63644e-09
-1.86047e-09
2.69018e-09
-3.14575e-10
-2.68362e-09
2.45638e-09
-3.45185e-09
-5.88055e-09
5.57943e-10
-5.6073e-10
1.1083e-09
1.08312e-09
-6.4195e-09
7.85688e-09
3.14561e-09
1.97202e-08
-4.36143e-09
-6.53791e-10
2.75861e-10
9.35873e-10
-1.00745e-08
-2.60313e-08
5.23745e-09
-4.18605e-09
-3.20271e-09
2.15132e-09
8.73144e-11
2.56262e-11
2.97318e-10
-2.4761e-09
3.27738e-09
9.0318e-09
6.68902e-10
-1.20141e-10
2.04307e-09
-2.23751e-09
1.7169e-09
1.47029e-08
1.33418e-08
-2.69221e-08
3.27208e-08
6.31109e-09
-2.28511e-08
-1.0382e-08
1.85598e-08
-1.80492e-08
1.0595e-08
-7.01383e-12
-2.54862e-10
-1.14775e-09
-1.62836e-09
-2.82642e-09
3.20218e-09
1.51957e-08
-6.41261e-10
-1.38526e-08
-8.98567e-10
-2.16575e-09
3.80696e-10
1.54809e-08
1.77818e-08
1.36932e-08
7.69116e-10
-1.74425e-09
-1.27181e-08
-1.41331e-09
5.97948e-09
1.26369e-08
-3.9947e-10
-9.75224e-10
-3.67745e-09
2.81746e-09
3.49643e-09
2.51402e-09
1.45833e-08
4.32752e-09
-1.44339e-08
1.81386e-08
-1.76156e-09
2.34093e-09
-3.29264e-09
1.92404e-09
-4.9661e-09
1.29213e-08
-1.19238e-08
-1.40565e-08
2.97442e-10
8.79294e-09
-1.76701e-09
1.47484e-09
1.40047e-09
-8.66626e-09
6.94936e-10
-4.54956e-09
-5.98655e-09
1.217e-08
-1.48498e-08
9.80098e-10
1.68566e-09
-2.19985e-09
1.68769e-08
-1.63627e-08
-1.1524e-09
1.42043e-08
3.12798e-09
-4.50475e-09
-1.4048e-08
7.60581e-09
-1.74744e-08
-8.18058e-09
6.92754e-09
5.88354e-09
1.46792e-08
-1.01367e-08
2.99606e-09
9.52507e-09
9.8055e-09
3.88463e-09
-4.23642e-09
2.18312e-08
-1.93024e-08
5.07701e-09
-1.07073e-08
2.16919e-09
5.71837e-09
1.40272e-08
-3.9652e-10
1.2831e-08
-1.35868e-08
-1.94197e-09
1.56905e-09
-5.63089e-10
9.36009e-10
1.11042e-08
-6.36145e-09
7.37836e-09
-1.1102e-08
1.47156e-09
-4.74207e-09
1.15442e-08
-1.20414e-08
-7.59245e-09
9.2659e-09
9.43074e-09
1.2978e-08
5.20242e-10
-1.38947e-08
1.38761e-09
7.71183e-10
-1.11833e-08
-6.725e-09
1.03158e-08
-1.2924e-09
2.50881e-09
-9.01295e-09
4.76197e-09
-5.34735e-09
1.16764e-08
-3.4658e-09
-1.18995e-08
3.68894e-09
-4.45832e-09
1.13926e-08
1.76098e-09
1.10147e-09
-5.07242e-09
-1.79035e-08
1.05691e-08
1.24068e-08
7.01791e-10
-1.11077e-08
-1.00757e-08
1.61109e-08
1.26898e-08
2.88806e-09
-9.85951e-09
-1.33515e-08
-3.24764e-10
-1.27587e-08
1.67983e-10
-7.68959e-10
1.17778e-08
1.25569e-08
-8.23734e-09
1.67486e-08
-1.61059e-08
3.68479e-09
-5.16204e-10
1.81081e-09
1.29817e-08
-3.94e-09
-1.27686e-08
-4.96222e-09
1.9536e-09
4.58974e-09
1.24103e-08
-7.23739e-09
1.00925e-09
-1.69295e-09
3.95385e-10
-6.444e-10
5.97041e-09
2.64558e-08
2.43097e-11
-9.19109e-09
9.16678e-09
2.86652e-08
-2.24126e-08
2.21271e-08
1.98096e-08
-1.27204e-08
-2.7263e-09
1.51691e-08
1.44588e-10
-1.21468e-08
-4.67317e-10
-6.00054e-09
-1.83066e-09
2.1505e-09
1.44115e-09
-5.35271e-10
-1.11897e-08
1.16471e-08
7.78406e-11
2.96826e-09
-4.96168e-09
-1.12345e-08
1.07647e-08
-9.33269e-10
-1.09377e-08
-2.77989e-10
-1.14418e-08
-2.42823e-09
-1.21301e-08
2.14408e-09
7.88515e-09
5.15774e-09
-5.58585e-10
-1.18296e-08
1.18529e-08
5.40425e-10
-8.93223e-09
5.1062e-09
-1.59565e-09
2.10176e-09
-1.84111e-09
-1.30652e-08
-1.2415e-08
1.18808e-08
-1.01504e-08
-1.58279e-08
1.00849e-08
9.30828e-09
7.96371e-10
2.75121e-09
-1.19423e-08
1.15882e-08
1.66118e-09
3.87021e-09
2.60825e-10
-4.46625e-10
-1.81232e-10
-4.16455e-09
2.47666e-09
-4.77855e-10
1.41991e-10
-1.6763e-10
2.56387e-11
-2.72223e-09
1.31613e-08
2.25076e-09
2.52291e-09
3.17604e-10
-1.26338e-09
-6.19845e-10
-2.23075e-09
-1.80378e-10
1.31158e-08
1.01766e-08
-2.8713e-10
6.72472e-09
-1.2518e-09
-5.18579e-09
-9.8604e-09
-5.15501e-09
1.06767e-10
3.52243e-11
4.85918e-09
1.35393e-09
-1.73208e-08
-2.73482e-10
-7.02795e-10
-2.77882e-09
1.02977e-09
3.20932e-09
6.19489e-08
-8.56264e-11
-6.18633e-08
6.23732e-08
1.88703e-10
-6.25619e-08
-1.41031e-08
-3.43912e-10
1.44359e-08
1.10717e-11
3.22012e-09
-1.71389e-09
2.42203e-09
1.80066e-09
-4.55082e-09
-2.39618e-10
-4.77623e-10
3.87985e-10
-8.37825e-11
3.6923e-10
-2.41196e-10
1.97834e-08
1.01783e-09
-1.59421e-08
-1.00988e-10
-1.94452e-09
1.26312e-08
2.29501e-09
1.81957e-09
5.34415e-09
-2.13949e-09
-7.7232e-08
-2.41783e-08
-5.04797e-09
1.58468e-08
2.49349e-09
1.06142e-10
-2.81475e-09
-9.80899e-10
2.14733e-10
-2.09058e-10
-9.60871e-09
-3.71571e-10
9.98028e-09
-1.09271e-08
-6.56158e-09
1.07637e-08
-9.53509e-09
8.74114e-09
2.96232e-10
1.37896e-09
9.17261e-09
-9.1563e-09
-1.63148e-11
5.46113e-10
8.74991e-11
1.0914e-08
4.5518e-10
-6.60639e-10
-2.40276e-11
-1.42539e-08
-4.36097e-10
-1.38768e-08
1.27951e-08
-1.19272e-08
-6.60353e-08
6.49931e-08
1.04226e-09
1.92799e-10
-1.67173e-10
1.21269e-08
-1.73731e-10
6.10143e-12
-2.10939e-09
2.75033e-09
-3.40926e-09
-1.34668e-08
-1.62505e-09
2.57692e-09
-4.65504e-09
-1.41814e-08
1.51563e-09
5.53499e-09
9.74783e-09
-9.1193e-09
-1.95329e-10
2.15983e-11
-9.28781e-09
-1.34734e-08
1.50996e-10
-6.26916e-08
2.35526e-10
6.2456e-08
6.95408e-10
6.34269e-08
-2.23517e-10
-1.69102e-09
-1.45098e-08
1.07407e-10
-6.34091e-08
6.33017e-08
1.85351e-10
-6.29504e-08
6.27651e-08
2.94788e-10
6.17977e-08
1.50482e-10
-6.19482e-08
6.16289e-08
1.68823e-10
-8.78889e-08
8.8498e-08
-1.00901e-12
9.33927e-08
-9.30992e-08
-2.67256e-10
-8.66283e-08
-4.33214e-10
9.33517e-08
-1.82708e-10
-8.49155e-08
-7.67318e-10
9.34824e-08
1.73658e-10
-5.22179e-10
1.96156e-09
9.23584e-08
-6.93101e-08
6.21391e-08
-6.2322e-08
-6.29492e-08
6.14866e-08
1.4235e-10
-3.16723e-09
2.96691e-09
-1.42335e-08
4.03932e-11
6.63735e-11
1.06445e-09
8.69229e-09
-1.13881e-08
3.83341e-08
-3.45677e-08
-1.67857e-08
1.38196e-08
-3.00133e-11
-1.96191e-10
1.15743e-10
5.24772e-10
-1.10425e-10
2.91438e-10
4.39411e-09
1.05491e-09
-3.52498e-09
-1.22631e-10
1.57914e-10
-8.41434e-11
-2.60629e-09
1.33088e-08
2.45883e-09
-1.44218e-08
-2.62709e-09
-3.23877e-09
5.49335e-09
1.05208e-09
-2.60665e-09
1.43745e-08
-1.19881e-09
-1.50919e-09
1.45343e-09
-8.12658e-09
-1.9086e-08
-1.35268e-08
8.062e-09
5.76228e-09
-1.8192e-10
-5.76289e-10
2.9087e-09
1.44958e-08
2.29413e-09
-1.87415e-09
-3.54343e-10
4.04617e-10
-2.21864e-10
1.5903e-08
-6.09306e-10
-1.56653e-08
4.09321e-10
3.60214e-11
3.38432e-10
-2.73892e-10
3.37955e-09
-1.61745e-08
4.03885e-10
-1.45793e-09
-2.03915e-09
-2.27565e-09
1.57799e-08
-9.05934e-08
-1.34002e-10
9.16785e-08
-1.90897e-10
-8.91638e-08
-4.77716e-10
9.31018e-08
-2.75167e-10
-9.29123e-08
-5.30054e-10
-1.53354e-09
1.68985e-08
9.198e-08
-1.98687e-10
2.95875e-11
-2.20855e-10
9.68602e-09
2.40947e-09
-7.13573e-09
-1.22924e-08
-5.67602e-09
8.37882e-09
1.52235e-09
-6.75557e-09
-5.97796e-09
9.05639e-09
-4.18142e-11
1.01259e-08
1.94996e-08
-1.79893e-08
3.08915e-09
-1.28045e-08
3.12509e-09
-6.99596e-08
3.9243e-09
-2.06053e-08
-1.30467e-08
-4.46037e-10
-5.92114e-09
-1.53074e-08
9.08176e-09
-1.50836e-08
3.79973e-10
3.2183e-10
-1.95241e-09
-1.67616e-08
1.71555e-08
7.03448e-09
-7.61828e-09
-4.38203e-09
1.53388e-08
-1.68409e-09
7.19772e-10
-7.61629e-10
4.05864e-11
1.19696e-08
3.31717e-09
7.09127e-08
-1.82443e-08
6.63943e-10
-1.50904e-08
-2.13108e-10
-2.453e-10
-1.37028e-10
6.09492e-08
-6.12244e-08
-6.33795e-08
-6.31491e-08
-6.42563e-11
-2.62177e-10
-9.25859e-08
-6.04521e-08
6.24136e-08
6.51033e-08
-6.02784e-08
6.45811e-08
-6.04611e-08
6.38138e-08
-6.07284e-08
6.33806e-08
9.23087e-08
2.4663e-10
-6.33453e-09
7.51277e-08
-6.5476e-08
2.43984e-11
-2.43984e-11
-3.15761e-11
-3.02208e-10
1.54757e-08
-4.9428e-12
4.9428e-12
2.85052e-10
1.51526e-09
1.39135e-08
1.34588e-08
-2.70751e-09
3.7143e-09
6.70452e-09
1.73349e-09
3.37844e-10
-2.26881e-10
-2.964e-09
1.45778e-08
1.48428e-08
-4.29215e-09
1.18203e-08
1.58572e-10
1.2845e-10
2.66552e-09
-7.61627e-10
-1.46773e-09
-5.85083e-09
-1.96145e-10
-3.69444e-10
1.53133e-08
2.19563e-10
4.13029e-11
1.42671e-08
-2.62763e-08
1.78661e-08
2.69558e-09
1.19829e-09
2.50038e-09
-3.72138e-09
1.94034e-08
-1.81824e-08
-6.47959e-11
-2.31023e-11
-1.44137e-09
-7.92131e-08
-7.07515e-08
1.22825e-09
-3.29758e-10
6.05128e-10
2.30146e-08
1.8612e-08
-6.41843e-09
7.60875e-11
-4.20979e-09
-2.52546e-09
2.99587e-08
1.61196e-10
1.48184e-08
7.35787e-08
3.68714e-11
5.01749e-10
-1.35752e-10
-1.93007e-10
-3.56748e-09
2.43475e-08
-1.48686e-08
8.75388e-10
-1.42006e-08
-4.19753e-11
2.04066e-08
-2.8759e-08
9.60101e-10
1.86275e-09
-1.80527e-10
)
;

boundaryField
{
    back
    {
        type            empty;
        value           nonuniform 0();
    }
    ingreso
    {
        type            calculated;
        value           nonuniform List<scalar> 
14
(
-1.54286e-08
-1.54288e-08
-1.54288e-08
-1.54288e-08
-1.54286e-08
-1.54283e-08
-1.54288e-08
-1.54288e-08
-1.54286e-08
-1.54286e-08
-1.54288e-08
-1.5428e-08
-1.5428e-08
-1.54286e-08
)
;
    }
    salida
    {
        type            calculated;
        value           nonuniform List<scalar> 2(1.0141e-07 1.1459e-07);
    }
    front
    {
        type            empty;
        value           nonuniform 0();
    }
    defaultFaces
    {
        type            calculated;
        value           uniform 0;
    }
}


// ************************************************************************* //
