/*--------------------------------*- C++ -*----------------------------------*\
  =========                 |
  \\      /  F ield         | OpenFOAM: The Open Source CFD Toolbox
   \\    /   O peration     | Website:  https://openfoam.org
    \\  /    A nd           | Version:  7
     \\/     M anipulation  |
\*---------------------------------------------------------------------------*/
FoamFile
{
    version     2.0;
    format      ascii;
    class       surfaceScalarField;
    location    "94";
    object      phi;
}
// * * * * * * * * * * * * * * * * * * * * * * * * * * * * * * * * * * * * * //

dimensions      [0 3 -1 0 0 0 0];

internalField   nonuniform List<scalar> 
1111
(
6.96118e-09
1.29751e-08
-1.60339e-08
-3.90236e-09
6.91645e-09
-1.18003e-08
1.18451e-08
-1.47474e-08
5.70033e-09
8.88388e-09
1.63186e-10
8.69951e-10
-1.00384e-09
-1.4368e-08
1.45019e-08
-1.43266e-08
1.41113e-08
1.08525e-09
-1.62712e-09
1.49136e-08
2.14206e-09
-2.91062e-09
9.49696e-09
-9.62304e-09
3.03671e-09
-6.72031e-09
-1.26136e-08
1.25991e-08
6.7348e-09
-5.02594e-08
-2.60691e-08
7.63285e-08
-8.12127e-09
7.70633e-09
7.33139e-09
3.32279e-09
3.67326e-10
-3.40379e-09
-2.86326e-10
1.58654e-08
-1.62405e-08
-2.32302e-08
2.36053e-08
-9.66461e-09
-7.89663e-09
8.80236e-09
8.75888e-09
-3.55681e-08
1.77116e-08
-3.23362e-08
5.01927e-08
9.49968e-09
-1.96327e-09
-1.42567e-08
-5.80248e-10
1.53955e-09
-2.99001e-09
2.03071e-09
-3.93595e-09
1.33328e-08
1.96902e-09
-1.13659e-08
8.81391e-09
-2.65418e-09
-1.50514e-08
8.89165e-09
3.72659e-08
-2.99349e-08
-7.331e-09
-1.94471e-08
3.51736e-10
1.7235e-08
1.86038e-09
-1.05424e-09
4.2329e-09
-1.78492e-08
1.46705e-08
-6.12241e-08
-3.96202e-09
6.51861e-08
1.39283e-10
-1.15233e-09
-3.31807e-10
1.34486e-09
-1.74476e-09
-1.36361e-08
-8.72098e-11
-2.38902e-10
1.82008e-10
1.44104e-10
-1.03697e-08
-8.52945e-09
1.30745e-08
5.82467e-09
6.8321e-10
-2.12605e-09
-8.28136e-09
9.72419e-09
8.6045e-09
7.81891e-10
-9.65113e-09
2.64734e-10
-2.87744e-09
-8.01177e-09
1.1084e-08
-1.94805e-10
1.14079e-08
-9.93803e-10
-1.6002e-09
-8.15349e-10
8.19112e-10
-6.35283e-12
2.58967e-12
-9.27792e-11
6.86188e-10
2.20477e-10
-8.13886e-10
-4.34494e-10
-3.95271e-11
4.666e-10
7.421e-12
-4.40172e-11
-7.85145e-10
1.13053e-10
7.16109e-10
-1.02682e-10
-7.56684e-10
9.67845e-10
-1.84108e-08
-2.00411e-09
-3.54992e-10
3.96642e-11
-1.19167e-10
1.33834e-08
-1.32431e-08
4.09264e-09
-3.54165e-10
5.48037e-10
3.24309e-10
-5.18181e-10
-4.40298e-11
-1.40264e-09
1.18609e-09
2.60581e-10
-1.96802e-09
1.05862e-08
-1.15288e-08
-2.51445e-10
-1.49154e-10
4.56077e-11
-8.74165e-09
1.04875e-08
-9.86712e-09
1.22545e-08
-1.71469e-08
4.58858e-09
3.03862e-10
5.25963e-11
-1.46923e-10
-1.57118e-10
1.60285e-10
7.59046e-10
-1.00218e-10
-5.9531e-08
7.42321e-08
-1.47011e-08
1.01238e-09
-2.28008e-10
-1.12941e-09
3.45039e-10
1.14767e-09
1.03088e-08
-1.37145e-08
2.25799e-09
-1.78058e-09
7.74502e-09
-8.94414e-09
2.97971e-09
-6.72293e-09
5.61834e-09
5.67589e-09
-4.57129e-09
-7.68787e-09
-1.65808e-09
1.70618e-09
7.63978e-09
-1.80671e-10
-9.0916e-08
9.13016e-08
-2.04932e-10
-2.55785e-10
-8.97508e-08
9.01606e-08
-1.53996e-10
8.30782e-08
-1.49309e-09
1.10208e-10
-8.16953e-08
-2.852e-09
-4.87481e-10
6.31012e-10
8.20208e-10
-4.38839e-10
3.91691e-09
-1.06491e-09
3.48123e-09
-6.33322e-09
-9.33408e-10
8.65686e-10
-1.4934e-08
6.5845e-09
9.82226e-09
1.05745e-09
-1.06022e-08
-2.77485e-10
-6.10218e-09
1.34775e-08
1.01798e-09
-8.39335e-09
1.43732e-08
-4.52882e-09
3.74996e-09
-1.35943e-08
1.53962e-08
1.67764e-09
-1.64502e-09
-1.9728e-10
-2.00635e-08
-7.425e-09
2.76857e-08
1.44027e-08
-8.77118e-09
-1.9041e-09
7.99076e-09
-1.21888e-08
1.65687e-11
4.55096e-11
-1.19149e-09
-3.61822e-08
-2.33488e-08
8.31538e-09
2.78648e-10
3.66045e-09
-6.99995e-09
1.11502e-08
6.33725e-09
-5.75701e-10
3.04344e-10
4.64338e-10
-1.9298e-10
5.73667e-09
-4.78966e-09
3.66558e-09
-4.6126e-09
-4.26508e-10
-6.10816e-10
2.5218e-10
6.27905e-10
-5.54379e-10
4.22678e-12
-7.7313e-10
6.76124e-10
-1.81465e-08
2.41656e-09
1.57193e-09
1.4158e-08
2.09336e-10
-6.70045e-10
-1.14992e-10
-4.15699e-09
-1.51378e-08
1.1483e-09
5.61017e-09
1.20753e-08
-5.22937e-09
-1.24561e-08
1.64129e-08
7.12356e-10
-1.58756e-08
-1.24958e-09
-6.56686e-10
4.34578e-10
5.26452e-10
-3.45805e-10
1.69697e-10
1.76107e-10
-7.43223e-09
-3.5455e-09
4.2548e-09
-2.07932e-10
3.2393e-10
-1.15997e-10
1.12667e-09
-1.56534e-08
-7.96988e-10
9.90181e-09
-1.10728e-08
-9.23192e-10
-3.41577e-10
1.29346e-08
4.4299e-09
-4.17435e-09
-1.31902e-08
8.24879e-11
7.17018e-09
-7.94421e-09
6.39237e-09
-1.64351e-09
-8.99121e-09
8.20748e-09
2.42723e-09
-1.90928e-09
6.78733e-10
-1.39073e-08
-1.1284e-10
-9.50917e-11
2.52149e-10
7.1037e-10
-8.65039e-09
7.57691e-10
1.72815e-08
-1.62632e-09
-1.21441e-08
1.35139e-08
-1.36974e-09
1.22327e-08
1.3939e-08
-1.55012e-08
-1.06705e-08
-5.11168e-10
9.46882e-10
-4.35713e-10
3.14815e-10
-1.97319e-10
-1.17496e-10
2.41348e-10
1.46061e-10
-3.87408e-10
1.34539e-09
-1.08617e-09
-2.59227e-10
-1.05733e-08
8.82242e-10
9.69106e-09
1.97415e-09
-6.28758e-10
8.9703e-09
-1.54032e-08
7.65668e-09
-9.18511e-09
5.94415e-11
3.66574e-09
-4.0239e-10
-2.34148e-09
2.40092e-09
-6.51513e-09
7.84981e-09
-1.33469e-09
-5.2089e-10
4.26271e-09
1.75085e-10
1.72664e-08
-1.448e-08
-1.63877e-09
-6.06834e-09
5.41246e-09
-4.09022e-10
-1.87239e-10
5.83192e-09
-5.82011e-09
-1.18054e-11
6.87751e-09
4.53505e-09
-2.67621e-11
-1.59703e-08
1.04646e-08
1.77384e-08
5.78692e-09
8.26077e-09
8.18989e-09
-6.8494e-09
1.3814e-09
-1.19547e-08
3.3463e-10
1.34205e-09
-1.29936e-08
2.82391e-09
-4.22994e-10
1.13865e-08
-1.06741e-08
-2.63041e-10
-7.62833e-10
-1.38127e-08
7.67136e-09
7.20393e-10
-1.69407e-12
-8.89392e-09
5.02046e-09
-3.01321e-08
-1.25128e-08
-2.81138e-09
1.51152e-09
1.41013e-08
1.10391e-08
-1.08006e-08
-1.43397e-08
1.54019e-08
-3.13874e-09
-1.22632e-08
1.61294e-09
3.98341e-09
-1.02308e-09
-8.9333e-10
-8.44481e-10
1.13837e-09
5.99444e-10
-2.26701e-10
3.46352e-10
3.44687e-10
6.21413e-08
-6.21672e-08
2.59288e-11
6.20614e-08
-6.23654e-08
3.04047e-10
8.37271e-10
6.47328e-08
-6.55597e-08
8.26902e-10
6.41251e-08
6.07667e-10
-2.24133e-10
-6.65051e-08
9.45454e-10
-6.20565e-08
6.19218e-08
1.34749e-10
1.31546e-09
-6.78206e-08
-6.22165e-08
1.60012e-10
1.26136e-08
-6.77721e-10
1.29249e-09
-3.69937e-09
3.0846e-09
3.11697e-10
-1.17406e-09
9.11737e-10
-5.61879e-10
1.38112e-09
-1.61353e-09
7.94293e-10
1.39089e-09
-1.4862e-09
1.40816e-10
-4.98697e-11
-3.43622e-09
2.74299e-09
-1.97173e-09
2.66497e-09
-4.3798e-10
-2.73241e-09
2.49267e-09
-3.54673e-09
-5.81423e-09
5.79481e-10
-6.03754e-10
1.18738e-09
1.10548e-09
-6.47301e-09
7.9104e-09
3.09766e-09
1.97537e-08
-4.35171e-09
-6.94202e-10
2.83519e-10
9.90164e-10
-1.00951e-08
-2.60871e-08
5.30262e-09
-4.26183e-09
-3.17693e-09
2.13614e-09
9.98418e-11
2.40385e-11
3.4272e-10
-2.55325e-09
3.3285e-09
8.96309e-09
7.26053e-10
-2.21223e-10
2.08795e-09
-2.30471e-09
1.83968e-09
1.47232e-08
1.33171e-08
-2.69359e-08
3.27062e-08
6.33347e-09
-2.2834e-08
-1.04354e-08
1.85036e-08
-1.79912e-08
1.05267e-08
-6.47675e-11
-2.05429e-10
-1.216e-09
-1.69394e-09
-2.91722e-09
3.47003e-09
1.51142e-08
-6.16568e-10
-1.38189e-08
-6.90006e-10
-2.32287e-09
2.80461e-10
1.54691e-08
1.77577e-08
1.37036e-08
7.36581e-10
-1.70113e-09
-1.2739e-08
-1.5193e-09
5.98042e-09
1.25644e-08
-4.80668e-10
-1.03885e-09
-3.63524e-09
2.78854e-09
3.58969e-09
2.49519e-09
1.44899e-08
4.26999e-09
-1.433e-08
1.80253e-08
-1.76283e-09
2.46714e-09
-3.37817e-09
1.90489e-09
-4.92651e-09
1.29419e-08
-1.19513e-08
-1.40434e-08
3.24886e-10
8.79202e-09
-1.80082e-09
1.50398e-09
1.48422e-09
-8.66041e-09
7.06296e-10
-4.55872e-09
-6.00238e-09
1.21899e-08
-1.48479e-08
1.08143e-09
1.67305e-09
-2.2049e-09
1.67965e-08
-1.62646e-08
-1.09515e-09
1.41822e-08
3.07593e-09
-4.44071e-09
-1.40384e-08
7.5607e-09
-1.73891e-08
-8.16278e-09
6.82429e-09
5.87008e-09
1.46002e-08
-1.00195e-08
3.02512e-09
9.42163e-09
9.84555e-09
3.85177e-09
-4.19985e-09
2.175e-08
-1.9203e-08
5.01373e-09
-1.05775e-08
2.17091e-09
5.66905e-09
1.39282e-08
-3.17097e-10
1.28045e-08
-1.35825e-08
-1.91877e-09
1.77801e-09
-7.77538e-10
9.18298e-10
1.10507e-08
-6.37173e-09
7.39631e-09
-1.09736e-08
1.45353e-09
-4.74554e-09
1.14857e-08
-1.19695e-08
-7.57461e-09
9.21259e-09
9.41276e-09
1.29215e-08
6.16838e-10
-1.38555e-08
1.45809e-09
7.85758e-10
-1.11285e-08
-6.72508e-09
1.0279e-08
-1.40123e-09
2.51411e-09
-8.98467e-09
4.7868e-09
-5.27943e-09
1.15904e-08
-3.48133e-09
-1.18026e-08
3.69362e-09
-4.47436e-09
1.13192e-08
1.84236e-09
1.1197e-09
-5.04229e-09
-1.78084e-08
1.05011e-08
1.23496e-08
7.38544e-10
-1.10271e-08
-1.00189e-08
1.60037e-08
1.26044e-08
2.86769e-09
-9.80301e-09
-1.33298e-08
-3.23622e-10
-1.27587e-08
1.61567e-10
-7.67322e-10
1.16898e-08
1.2544e-08
-8.23756e-09
1.66629e-08
-1.60367e-08
3.64381e-09
-4.82529e-10
1.77732e-09
1.28632e-08
-3.9255e-09
-1.2705e-08
-5.05136e-09
1.78418e-09
4.60923e-09
1.22926e-08
-7.24439e-09
9.55786e-10
-1.64416e-09
6.52249e-10
-9.26856e-10
5.89408e-09
2.63826e-08
-9.57314e-11
-9.70448e-09
9.80022e-09
2.85779e-08
-2.23321e-08
2.21027e-08
1.97489e-08
-1.27194e-08
-2.69293e-09
1.51123e-08
1.76827e-10
-1.21439e-08
-4.37953e-10
-6.01459e-09
-1.8584e-09
2.20174e-09
1.49902e-09
-4.19442e-10
-1.11138e-08
1.15341e-08
-8.86826e-13
3.07405e-09
-5.14571e-09
-1.11068e-08
1.06506e-08
-9.14452e-10
-1.08264e-08
-2.16035e-10
-1.13006e-08
-2.53543e-09
-1.20584e-08
2.17286e-09
7.90228e-09
5.1439e-09
-4.01943e-10
-1.1814e-08
1.17965e-08
5.69368e-10
-8.84061e-09
5.1512e-09
-1.51615e-09
2.2493e-09
-2.10928e-09
-1.3056e-08
-1.25963e-08
1.20987e-08
-1.01956e-08
-1.57997e-08
1.00251e-08
9.28071e-09
8.30841e-10
2.68868e-09
-1.23932e-08
1.14772e-08
1.6661e-09
3.90951e-09
2.87194e-10
-4.89279e-10
-2.24423e-10
-4.14812e-09
2.53537e-09
-7.10117e-10
1.76522e-10
-2.07831e-10
3.13086e-11
-2.68803e-09
1.30659e-08
2.22648e-09
2.54132e-09
5.20905e-11
-1.38825e-09
-5.11118e-10
-2.31733e-09
-2.86924e-10
1.30175e-08
1.00857e-08
-3.21916e-10
6.80648e-09
-1.23949e-09
-5.24508e-09
-9.81486e-09
-5.12586e-09
1.34248e-10
4.22745e-11
4.87655e-09
1.32739e-09
-1.7231e-08
-3.37578e-10
-7.53906e-10
-2.77647e-09
1.02574e-09
3.06741e-09
6.19434e-08
-8.57729e-11
-6.18576e-08
6.23675e-08
1.89049e-10
-6.25566e-08
-1.41241e-08
-2.43709e-10
1.44774e-08
-1.09643e-10
3.09846e-09
-1.79868e-09
2.51216e-09
1.80063e-09
-4.5056e-09
-3.08964e-10
-5.1417e-10
4.17304e-10
-9.61142e-11
4.21365e-10
-2.83324e-10
1.96901e-08
1.05746e-09
-1.5871e-08
-1.40668e-10
-1.93594e-09
1.25237e-08
2.27551e-09
1.79896e-09
5.34451e-09
-2.11656e-09
-7.72334e-08
-2.41778e-08
-4.95381e-09
1.58423e-08
2.44438e-09
-7.38011e-11
-2.95364e-09
-1.07174e-09
3.18242e-10
-2.85353e-10
-9.98617e-09
-3.60855e-10
1.0347e-08
-1.08639e-08
-6.59098e-09
1.07298e-08
-9.47899e-09
8.75509e-09
2.16228e-10
1.48798e-09
9.51526e-09
-9.44735e-09
-6.79143e-11
5.89986e-10
8.61969e-11
1.07256e-08
5.92443e-10
-7.66913e-10
-8.85965e-11
-1.42457e-08
-4.70911e-10
-1.38174e-08
1.26885e-08
-1.188e-08
-6.60353e-08
6.49909e-08
1.04441e-09
2.38803e-10
-2.14764e-10
1.20228e-08
-2.16309e-10
8.47822e-12
-2.05815e-09
2.76148e-09
-3.4247e-09
-1.34726e-08
-1.62472e-09
2.57356e-09
-4.7101e-09
-1.41015e-08
1.58061e-09
5.55934e-09
9.67761e-09
-9.04228e-09
-2.40235e-10
2.39259e-11
-9.31558e-09
-1.33597e-08
1.51001e-10
-6.26975e-08
2.36226e-10
6.24613e-08
6.95148e-10
6.343e-08
-2.23865e-10
-1.61775e-09
-1.4495e-08
1.08009e-10
-6.34039e-08
6.32959e-08
1.83518e-10
-6.2945e-08
6.27615e-08
3.41289e-10
6.18011e-08
1.50304e-10
-6.19514e-08
6.16323e-08
1.68808e-10
-8.78906e-08
8.85e-08
-1.65828e-12
9.33948e-08
-9.31015e-08
-2.67455e-10
-8.66296e-08
-4.3411e-10
9.33538e-08
-1.83104e-10
-8.49161e-08
-7.68063e-10
9.34846e-08
1.73272e-10
-5.22416e-10
1.96115e-09
9.23607e-08
-6.93137e-08
6.21418e-08
-6.23224e-08
-6.29533e-08
6.14899e-08
1.42426e-10
-3.12093e-09
2.94759e-09
-1.41566e-08
4.78836e-11
8.63647e-11
1.31611e-09
8.72975e-09
-1.13839e-08
3.83051e-08
-3.45375e-08
-1.67612e-08
1.38014e-08
-3.91757e-11
-2.09954e-10
1.47159e-10
6.26605e-10
-1.24073e-10
3.14676e-10
4.45871e-09
1.04042e-09
-3.59425e-09
-1.67678e-10
2.07343e-10
-1.2207e-10
-2.57381e-09
1.32131e-08
2.42662e-09
-1.44317e-08
-2.62901e-09
-3.31812e-09
5.54854e-09
1.04631e-09
-2.64054e-09
1.43101e-08
-1.1685e-09
-1.886e-09
2.06317e-09
-8.11897e-09
-1.90668e-08
-1.34839e-08
8.00045e-09
5.80833e-09
-2.16345e-10
-5.62701e-10
2.98078e-09
1.4482e-08
2.27835e-09
-1.84673e-09
-3.81994e-10
4.32181e-10
-2.37425e-10
1.59487e-08
-5.85045e-10
-1.57245e-08
-1.25246e-10
-3.08941e-10
3.27077e-10
-2.54026e-10
3.44494e-09
-1.63421e-08
4.51412e-10
-1.51619e-09
-2.10394e-09
-2.30793e-09
1.56711e-08
-9.05937e-08
-1.3886e-10
9.1681e-08
-1.90375e-10
-8.91661e-08
-4.76657e-10
9.31043e-08
-2.75304e-10
-9.29147e-08
-5.46174e-10
-1.59878e-09
1.67971e-08
9.19823e-08
-1.96879e-10
2.90174e-11
-2.21047e-10
9.81883e-09
2.50432e-09
-7.41165e-09
-1.22014e-08
-5.6778e-09
8.41521e-09
1.48668e-09
-6.80424e-09
-6.001e-09
9.03561e-09
-6.9474e-11
1.01409e-08
1.94995e-08
-1.79823e-08
3.08376e-09
-1.27192e-08
3.09799e-09
-6.99716e-08
3.93623e-09
-2.05924e-08
-1.30732e-08
-4.78998e-10
-5.94049e-09
-1.52878e-08
9.08436e-09
-1.5138e-08
4.20714e-10
3.55909e-10
-1.90028e-09
-1.66432e-08
1.70667e-08
7.24846e-09
-7.73594e-09
-4.6657e-09
1.52941e-08
-1.67757e-09
6.93649e-10
-9.23402e-10
1.2351e-10
1.19594e-08
3.32145e-09
7.09107e-08
-1.82467e-08
7.28455e-10
-1.50189e-08
-2.30059e-10
-2.67933e-10
-1.00086e-10
6.09523e-08
-6.12276e-08
-6.33749e-08
-6.31419e-08
-6.41536e-11
-2.62268e-10
-9.25883e-08
-6.04539e-08
6.24151e-08
6.51011e-08
-6.02807e-08
6.45787e-08
-6.04638e-08
6.38107e-08
-6.07312e-08
6.33765e-08
9.23112e-08
2.7411e-10
-6.35701e-09
7.51177e-08
-6.54392e-08
3.63344e-11
-3.63344e-11
2.40661e-10
-3.20776e-10
1.54817e-08
-2.16786e-11
2.16786e-11
3.25503e-10
1.52574e-09
1.39031e-08
1.34076e-08
-2.72491e-09
3.72181e-09
6.59683e-09
1.81813e-09
3.63465e-10
-2.47172e-10
-2.9764e-09
1.45849e-08
1.48457e-08
-4.28708e-09
1.18193e-08
1.78605e-10
1.43389e-10
2.73695e-09
-8.18781e-10
-1.53041e-09
-5.83969e-09
-2.05902e-10
-3.92141e-10
1.53087e-08
2.48239e-10
6.08094e-11
1.44817e-08
-2.62107e-08
1.77824e-08
2.6579e-09
1.2578e-09
2.49906e-09
-3.72327e-09
1.93225e-08
-1.80982e-08
-7.65058e-11
1.45197e-10
-1.44064e-09
-7.92103e-08
-7.07543e-08
1.30117e-09
-4.84463e-10
6.35849e-10
2.29966e-08
1.86057e-08
-6.36324e-09
7.53788e-11
-4.27414e-09
-2.51913e-09
2.99476e-08
1.56337e-10
1.48183e-08
7.35803e-08
4.77953e-11
5.13146e-10
-1.5213e-10
-2.10894e-10
-3.63612e-09
2.42833e-08
-1.48687e-08
9.61904e-10
-1.41827e-08
-5.00306e-11
2.03911e-08
-2.87063e-08
9.4166e-10
1.93793e-09
-2.71528e-10
)
;

boundaryField
{
    back
    {
        type            empty;
        value           nonuniform 0();
    }
    ingreso
    {
        type            calculated;
        value           nonuniform List<scalar> 
14
(
-1.54286e-08
-1.54288e-08
-1.54288e-08
-1.54288e-08
-1.54286e-08
-1.54283e-08
-1.54288e-08
-1.54288e-08
-1.54286e-08
-1.54286e-08
-1.54288e-08
-1.5428e-08
-1.5428e-08
-1.54286e-08
)
;
    }
    salida
    {
        type            calculated;
        value           nonuniform List<scalar> 2(1.01411e-07 1.14589e-07);
    }
    front
    {
        type            empty;
        value           nonuniform 0();
    }
    defaultFaces
    {
        type            calculated;
        value           uniform 0;
    }
}


// ************************************************************************* //
