/*--------------------------------*- C++ -*----------------------------------*\
  =========                 |
  \\      /  F ield         | OpenFOAM: The Open Source CFD Toolbox
   \\    /   O peration     | Website:  https://openfoam.org
    \\  /    A nd           | Version:  7
     \\/     M anipulation  |
\*---------------------------------------------------------------------------*/
FoamFile
{
    version     2.0;
    format      ascii;
    class       volVectorField;
    location    "94";
    object      U;
}
// * * * * * * * * * * * * * * * * * * * * * * * * * * * * * * * * * * * * * //

dimensions      [0 1 -1 0 0 0 0];

internalField   nonuniform List<vector> 
591
(
(0.000835909 -9.01221e-06 1.21658e-18)
(0.000830801 -8.67133e-06 -6.62251e-19)
(0.000854951 1.4012e-05 5.70424e-20)
(0.000866431 -2.28071e-05 -1.49032e-19)
(0.000853607 -8.16058e-06 2.25464e-19)
(0.000803482 -3.89231e-05 -1.39578e-19)
(0.000564937 -0.000236415 8.05981e-19)
(0.000803842 4.41712e-06 2.10448e-18)
(0.00572564 0.00250949 9.87944e-19)
(0.000812773 -3.68038e-06 2.4473e-18)
(4.63994e-05 0.000162155 1.21795e-18)
(0.000938007 0.00139194 9.40738e-21)
(0.000801079 4.18485e-06 1.32267e-18)
(0.00160239 0.00240321 -7.87381e-19)
(0.000803323 1.51179e-06 -4.46123e-19)
(4.74126e-05 -0.000161574 2.2736e-22)
(0.000140281 0.000671309 7.04812e-19)
(0.000817707 7.82869e-05 -4.96907e-19)
(0.00190144 0.000392354 4.73775e-19)
(0.00135989 0.000255533 -2.47063e-19)
(0.000831939 -8.65291e-06 3.73106e-19)
(0.0034004 0.00655972 -8.14795e-20)
(2.3796e-05 6.48677e-05 2.70875e-19)
(0.000836155 -2.42608e-05 -4.51494e-19)
(7.03842e-06 -1.19679e-05 3.5882e-19)
(0.000789018 4.12822e-05 0)
(9.44268e-05 0.000468245 1.59933e-19)
(0.000568761 1.03087e-07 -1.78784e-19)
(0.000763203 4.68594e-05 1.14914e-18)
(0.000807102 6.82318e-05 5.84742e-19)
(5.04531e-05 -5.29608e-06 -4.99189e-24)
(2.34254e-05 -4.01606e-05 3.52076e-19)
(2.9525e-05 -2.62075e-06 -4.64092e-20)
(3.88624e-05 -1.22284e-05 0)
(4.7538e-05 -1.28841e-05 1.13114e-18)
(0.00117147 0.000138875 1.79851e-19)
(2.4861e-05 -4.35879e-06 4.47019e-20)
(0.000824507 5.59108e-07 3.14815e-23)
(2.36978e-05 3.91753e-05 2.65955e-19)
(-4.31117e-06 -6.73882e-05 -8.53564e-19)
(0.000657252 -0.000194332 9.58812e-19)
(1.93557e-05 -5.20341e-06 4.54697e-20)
(0.000811978 1.53085e-05 -1.58014e-18)
(0.000832217 4.9403e-05 -6.90948e-19)
(1.25926e-05 -5.8919e-06 0)
(4.91162e-05 4.30703e-06 8.51633e-20)
(0.00134854 0.00450317 8.9283e-19)
(6.91786e-05 1.12111e-05 8.63386e-20)
(0.000802266 1.64476e-05 0)
(0.000392667 -0.00022864 6.77051e-19)
(0.000388846 0.000267378 5.11787e-21)
(0.00040256 3.48625e-05 -1.0035e-18)
(0.00634783 0.0109405 -7.68609e-19)
(0.00622447 0.0107956 1.52793e-20)
(0.00561436 0.0103783 1.45589e-18)
(0.000806117 4.48194e-05 0)
(6.19044e-05 2.60752e-05 0)
(0.000319631 -3.61384e-06 2.41437e-23)
(5.68208e-05 7.17732e-06 -3.46362e-19)
(0.000812574 -7.13512e-06 0)
(0.000658928 2.85385e-05 3.17463e-19)
(0.000844141 2.45272e-05 2.20745e-18)
(0.000809881 3.7902e-05 -5.38037e-19)
(0.000800073 1.19253e-05 -3.15663e-19)
(0.00171334 0.00048779 5.4255e-19)
(0.000809049 2.9803e-05 -1.14821e-18)
(0.000837175 3.36895e-05 -5.23977e-19)
(7.17028e-05 -6.62316e-06 -1.73363e-19)
(0.000689795 0.00225916 0)
(0.000844534 4.79021e-05 0)
(0.000790282 2.47236e-05 -1.39262e-18)
(3.4146e-05 1.36075e-05 0)
(0.000292589 0.00026422 3.26767e-19)
(3.33556e-05 -1.55945e-05 0)
(3.53169e-05 -5.54639e-06 1.59428e-19)
(7.27572e-06 -3.59448e-05 -3.36572e-20)
(0.000801479 7.88312e-05 2.46889e-19)
(3.96269e-05 8.56513e-06 0)
(0.000810602 5.54204e-05 4.4741e-19)
(0.000780766 0.000295027 2.10668e-19)
(0.000961403 6.73651e-05 -3.97721e-20)
(3.88605e-05 1.98224e-05 -4.51736e-20)
(3.81487e-06 -1.31383e-05 0)
(0.000441726 0.000211514 1.70141e-19)
(2.71362e-06 1.714e-05 0)
(0.000804952 4.60988e-05 -6.07403e-19)
(0.000641449 -0.00011639 0)
(5.75908e-05 -4.35836e-06 -1.74431e-19)
(1.27318e-06 -1.82908e-05 0)
(0.000835386 0.000241568 -3.41159e-19)
(2.26523e-06 -7.41266e-06 0)
(0.000431197 0.000320093 -1.34462e-23)
(0.00054286 0.00010822 0)
(0.000815185 4.38178e-05 -3.05261e-24)
(2.24687e-06 1.03079e-05 -4.21595e-20)
(0.000470506 -2.62785e-05 1.76299e-18)
(0.00101919 7.31253e-05 4.15886e-20)
(0.000790153 4.68743e-05 6.41465e-22)
(0.00074661 0.000659375 2.6943e-19)
(6.90047e-06 4.01072e-05 0)
(-5.56793e-06 -2.17914e-05 -3.12155e-19)
(-3.65979e-05 -2.73332e-05 -1.10179e-18)
(4.94367e-06 6.6135e-05 -5.96203e-19)
(0.000596071 -2.79555e-05 0)
(9.06737e-06 8.96341e-05 0)
(0.000819855 3.34129e-05 2.18162e-18)
(0.000799147 3.50641e-05 1.53384e-18)
(0.000447476 -0.000108733 0)
(3.93243e-05 0.00020884 -8.95122e-19)
(1.02747e-06 0.000153085 4.96749e-19)
(5.6687e-05 0.000392492 6.25114e-19)
(0.000310726 6.77779e-05 -9.36931e-19)
(0.000801946 1.99977e-05 1.37377e-19)
(0.000257554 -6.75183e-05 5.31068e-19)
(4.21208e-06 2.54964e-05 0)
(1.89388e-05 0.000270922 -1.09387e-18)
(0.000325469 0.000319049 -1.61665e-19)
(-1.61413e-06 -1.66401e-05 1.46527e-19)
(0.000669901 0.000807135 0)
(0.000373845 0.000381817 5.74274e-20)
(0.000824349 2.76721e-05 1.07035e-18)
(0.000799723 1.72345e-06 -2.72409e-18)
(6.288e-06 4.2632e-06 0)
(0.000660298 -4.04178e-05 -1.12278e-19)
(0.000323582 -0.000145718 1.24284e-18)
(0.0026232 0.000810269 -3.36495e-19)
(7.84265e-06 0.000118927 -6.131e-19)
(8.25848e-06 0.000146973 1.61939e-18)
(0.000663608 2.52539e-05 -3.897e-20)
(5.5202e-05 -1.61087e-05 -7.49953e-19)
(0.000811332 3.79636e-05 -3.89853e-19)
(0.00071396 2.74208e-05 -4.10423e-20)
(3.2021e-05 0.000317659 -5.97007e-19)
(0.000501463 5.35138e-05 -4.93795e-19)
(4.21187e-05 -4.26476e-06 1.56108e-19)
(0.000841312 3.99064e-05 -1.08846e-18)
(0.0015336 0.000234731 -1.13657e-18)
(5.10311e-06 5.31817e-05 4.96294e-19)
(0.000812981 3.62861e-05 -5.03379e-19)
(0.000923498 0.000552969 -7.84891e-20)
(0.000149506 0.000780072 0)
(0.000599002 6.26158e-05 0)
(0.000278017 4.17907e-05 -1.60911e-18)
(5.92444e-05 5.2782e-05 -1.37372e-18)
(2.73684e-05 1.77914e-05 0)
(0.00424762 0.00740069 -1.01959e-20)
(0.00422575 0.00737235 3.16536e-20)
(0.00442792 0.0075751 -4.97543e-21)
(0.00420571 0.00773355 0)
(0.00419819 0.00759935 5.77259e-19)
(0.0042446 0.00740182 -9.20107e-20)
(0.00420945 0.00804098 4.84495e-19)
(0.00429033 0.00742313 0)
(0.00420783 0.00853383 6.16807e-19)
(0.00432689 0.00745177 2.23921e-19)
(0.00083407 2.0448e-05 -1.37245e-18)
(0.00078235 6.05844e-05 0)
(0.000210746 3.97466e-05 1.27668e-19)
(4.52099e-05 1.26543e-05 8.71602e-20)
(7.29421e-05 3.85197e-05 6.79833e-19)
(9.9574e-05 3.32758e-05 -3.41576e-19)
(9.16551e-05 -1.45448e-06 0)
(4.23342e-05 2.98559e-06 8.18141e-20)
(0.000207724 0.000121727 0)
(0.000160554 2.927e-05 -5.2418e-20)
(0.000347726 0.000215224 -5.09131e-21)
(5.16014e-05 3.78868e-05 -4.37533e-19)
(8.4286e-05 2.04016e-05 -8.52237e-20)
(8.57632e-05 5.46264e-05 1.31159e-21)
(0.000261215 0.000360155 -6.66019e-19)
(0.000109972 0.000991557 0)
(3.87886e-05 4.75506e-05 3.42968e-19)
(0.00019945 0.00174181 0)
(0.000208812 0.000246364 7.04491e-19)
(3.13468e-05 -3.03769e-06 1.11463e-19)
(0.000493184 0.000159758 -1.72257e-19)
(0.000774677 2.68295e-05 -1.92359e-18)
(3.69721e-05 -1.71216e-06 4.73891e-24)
(0.000140815 1.40431e-05 2.24531e-19)
(0.000246371 8.05881e-05 -8.99092e-20)
(0.000882829 0.000696084 3.34863e-19)
(0.000727758 0.00163457 -9.2331e-21)
(0.000397659 0.00141906 -9.38328e-21)
(0.00103015 0.000547223 0)
(9.13171e-05 -2.05812e-05 1.1184e-18)
(0.000107566 5.99317e-06 -4.42879e-20)
(0.000471682 -0.000273008 -1.13603e-18)
(0.000824059 4.32716e-05 0)
(0.000175834 -1.49231e-05 3.63213e-19)
(0.000305085 0.00129786 0)
(0.00108879 0.000774329 -7.30023e-20)
(0.00082715 2.84145e-05 -1.86497e-19)
(6.65789e-05 -2.37536e-05 -2.99894e-19)
(0.000840671 0.000314995 -2.07988e-20)
(4.5636e-05 -2.11715e-05 -5.9932e-19)
(0.000227687 0.000166366 8.63668e-20)
(0.000231846 0.000304285 -3.44928e-19)
(0.000897086 0.00025267 0)
(0.000825589 5.70764e-05 0)
(0.000266854 0.000123428 1.76802e-19)
(0.000232391 -1.58374e-05 6.6548e-24)
(0.000185016 0.000198274 0)
(0.000306117 0.000646067 -5.55575e-21)
(0.000360808 -2.82076e-05 0)
(0.0003821 0.000598207 0)
(0.000104325 7.39161e-05 -1.34634e-21)
(0.000810691 3.12519e-05 -9.57117e-19)
(0.000805481 1.75467e-05 7.97482e-19)
(0.000123781 4.78245e-05 -1.49816e-19)
(0.000971763 0.000146077 8.50154e-20)
(0.000840988 3.87356e-05 3.33548e-19)
(0.000822083 3.42758e-05 -2.94e-19)
(0.00103223 0.000420578 0)
(0.000447714 0.000109634 6.24259e-19)
(0.000912204 0.000323438 2.09079e-20)
(0.000591268 0.000150925 0)
(0.000274681 0.000444285 4.09549e-19)
(0.000263043 0.00020901 -8.43972e-20)
(0.00110347 0.000384065 -7.81895e-19)
(0.000639047 0.000102503 -1.79238e-19)
(0.0008211 7.61362e-05 -7.45768e-21)
(0.000845461 2.39086e-05 9.4e-20)
(5.50759e-05 -8.56839e-05 -1.98076e-18)
(0.000745689 0.000379688 2.19179e-19)
(0.000684379 6.87208e-05 2.30579e-20)
(0.000715898 0.00027907 1.6208e-23)
(0.000739442 0.000461468 -4.09579e-19)
(0.000852945 1.74515e-05 9.06802e-20)
(6.82291e-05 7.23151e-05 0)
(0.000663079 0.000424445 -4.65801e-20)
(0.000181796 8.41797e-05 0)
(0.000374276 0.00050164 -2.64779e-19)
(0.000312182 0.000158199 0)
(0.000684615 0.000205761 3.55123e-19)
(0.00065918 0.000259479 -4.37129e-20)
(7.9378e-05 9.75949e-05 6.18988e-19)
(0.000885057 9.69717e-05 -1.63858e-18)
(5.23441e-05 1.80512e-05 2.5712e-19)
(0.00089772 7.37768e-05 -1.68605e-18)
(0.000848921 9.08002e-05 1.63024e-19)
(0.000814393 3.69792e-05 1.91215e-18)
(0.000822072 3.33865e-05 -1.32807e-19)
(0.000745693 7.05858e-05 0)
(0.000805323 1.99263e-05 8.95358e-19)
(0.000972371 0.000236982 -4.26969e-19)
(0.000787745 0.000100252 -4.83592e-19)
(0.000783122 0.000237243 -8.80959e-20)
(0.000196736 -0.000193125 -2.07528e-18)
(0.00076247 8.12389e-05 8.87269e-19)
(0.000643835 0.000591983 0)
(6.10752e-05 -0.000122292 0)
(0.00122952 0.000475611 4.97153e-19)
(0.000557705 -5.68921e-05 -3.27076e-18)
(0.00135467 0.000416825 5.76296e-19)
(0.00125386 0.000719318 -6.38833e-20)
(0.000816902 3.40017e-05 -2.12692e-19)
(0.000843384 6.67768e-05 -1.42758e-18)
(0.000814643 2.7786e-05 1.58704e-18)
(0.000815379 2.1222e-05 9.77748e-20)
(0.000675071 0.000353469 -4.40284e-20)
(9.90232e-05 0.000114123 8.13951e-24)
(0.000764724 -3.0024e-05 2.64926e-19)
(0.000208532 -0.000261177 -7.31134e-19)
(0.00063874 0.000182814 0)
(0.000724545 5.0941e-05 9.90083e-20)
(0.000717757 9.60697e-06 -3.80691e-19)
(0.000396256 0.000163671 3.93259e-20)
(0.000812567 0.000510209 -1.65433e-19)
(0.000145027 6.53186e-05 3.87713e-25)
(0.000819661 0.000413162 0)
(0.000989027 0.000315735 4.15645e-20)
(0.0007687 -6.2785e-05 -6.15956e-19)
(0.000354995 9.44831e-05 4.97692e-19)
(0.000905202 0.000427931 0)
(4.48185e-05 2.72661e-05 1.33673e-19)
(0.000494063 0.000261999 2.13893e-19)
(0.000544188 -0.000170189 -7.09223e-19)
(9.66755e-05 -0.00017483 -1.05563e-18)
(0.000826881 4.00596e-05 -4.86566e-19)
(0.00076195 -6.5493e-05 -1.94487e-19)
(0.000549963 0.000729077 -1.17411e-18)
(0.000855118 4.64329e-05 -6.74418e-20)
(0.000571131 -1.14385e-05 1.2819e-18)
(0.000717817 9.95387e-05 2.27708e-20)
(0.000543377 0.00020413 -1.6564e-19)
(2.43989e-05 -1.8949e-05 -8.756e-20)
(0.000151368 -5.93149e-05 2.40532e-18)
(1.28203e-05 5.54167e-07 -1.94799e-19)
(0.000842035 0.000119034 3.63633e-19)
(0.000680526 0.000134933 0)
(0.00017144 -0.000109406 -1.04789e-18)
(0.00011188 -2.70262e-05 3.12717e-19)
(9.33786e-05 -4.08216e-05 1.3458e-23)
(0.00080979 0.000105337 -3.19165e-19)
(0.00014539 -2.27048e-05 0)
(0.000595755 0.000238527 0)
(0.000111381 0.000322748 -3.62763e-19)
(0.000868601 0.000101612 2.10781e-18)
(1.04259e-05 7.46251e-07 0)
(0.000888108 5.24319e-05 0)
(3.57948e-05 -2.48031e-05 0)
(0.00081524 4.88376e-05 -4.46661e-21)
(0.000783419 -3.07557e-05 0)
(0.00426074 0.00740737 8.07016e-20)
(0.00436281 0.00748782 1.43348e-19)
(0.00084291 -1.64025e-05 0)
(0.000797597 -3.56287e-05 8.11853e-19)
(0.000151592 0.000115943 1.4917e-19)
(0.000862139 6.68121e-05 8.07932e-19)
(0.00012683 9.32433e-05 2.34331e-20)
(0.000791122 -2.13756e-05 6.24058e-19)
(3.08808e-05 7.98211e-06 0)
(2.27437e-05 -1.14963e-05 -4.48351e-20)
(0.000906565 4.75727e-05 -4.86394e-19)
(2.53324e-05 -2.84223e-05 -6.69611e-19)
(0.000768541 0.000126275 -4.23106e-20)
(0.000169149 0.000153682 -1.88051e-19)
(0.000814013 3.16796e-05 0)
(0.00468252 0.0081536 9.0056e-22)
(0.000192591 0.000791561 3.33383e-19)
(9.9393e-05 -6.69489e-05 -9.14265e-19)
(5.06578e-05 -3.46553e-05 -1.16845e-18)
(0.000595688 1.30923e-05 1.89729e-20)
(0.000585047 0.000404222 0)
(0.000424815 0.000445448 -2.56267e-19)
(6.70961e-05 -6.38677e-05 1.1834e-18)
(0.000556542 -1.16729e-06 7.68109e-20)
(3.71236e-05 1.05718e-06 4.06976e-19)
(0.000722513 -4.30268e-05 1.17123e-18)
(0.000812831 3.25742e-05 -6.03802e-19)
(5.00305e-05 -5.39847e-05 1.70896e-18)
(0.000841337 -4.0458e-05 -6.1741e-24)
(0.000571733 6.26925e-06 -3.75378e-20)
(0.000876551 7.20446e-05 0)
(0.000845889 5.00925e-05 0)
(0.00591602 0.00724338 2.59877e-19)
(1.31285e-05 -2.93547e-06 -1.1956e-19)
(9.74962e-05 -0.000114851 7.7282e-19)
(0.000736974 0.00011458 -6.96215e-19)
(1.57615e-05 2.38575e-07 2.01486e-19)
(0.000649505 -3.6173e-05 -7.23571e-19)
(0.0007545 3.54722e-05 1.55753e-18)
(0.00071453 0.000157722 -3.55331e-19)
(0.000807389 -1.17377e-05 3.60799e-19)
(6.39926e-05 -3.66597e-05 1.11566e-18)
(0.000801492 6.48399e-06 -3.22586e-19)
(0.000873799 3.68033e-05 0)
(0.000549933 0.000301832 4.209e-20)
(0.00086671 4.98906e-05 -9.47343e-19)
(1.38778e-05 2.8707e-06 9.11255e-19)
(0.000860785 4.2011e-05 9.65834e-19)
(0.000862786 2.34632e-05 -9.64391e-19)
(0.000764449 1.70174e-07 -5.68982e-19)
(0.000545736 -8.25471e-05 -5.25476e-19)
(0.00432986 0.00745402 2.47039e-19)
(0.00422297 0.0075282 -2.53606e-19)
(0.0042206 0.00758598 2.66969e-19)
(0.00425636 0.00741121 1.9797e-19)
(0.000845129 -3.67813e-05 1.44226e-19)
(0.00447691 0.00751457 0)
(0.00440442 0.00751854 -3.86828e-19)
(2.22941e-05 -1.37714e-07 -9.97955e-19)
(0.00417022 0.00746864 -6.33663e-20)
(0.0041457 0.00743191 -2.21517e-19)
(0.00602919 0.010605 0)
(0.00654027 0.011187 3.71442e-20)
(0.00600911 0.0105747 0)
(0.00655597 0.0112106 1.30919e-19)
(0.00599649 0.0105987 2.69683e-19)
(0.00659267 0.0112275 1.24651e-20)
(0.00593534 0.0106114 -7.76785e-19)
(0.00662294 0.0111464 8.15529e-21)
(0.00390344 0.00919758 -1.9081e-19)
(0.00418644 0.0074876 3.89984e-21)
(0.00423746 0.00755153 7.93622e-20)
(0.00415019 0.00743422 4.12041e-20)
(0.000893415 0.000195933 4.46599e-20)
(7.21926e-06 1.00778e-06 0)
(0.000724029 -0.000104497 0)
(0.000657661 5.66548e-05 0)
(0.00244504 0.00111753 4.23084e-21)
(0.000758401 -3.06342e-05 1.72523e-19)
(3.58178e-05 4.46162e-06 4.53929e-20)
(6.02678e-06 -2.22658e-05 1.65251e-18)
(0.000860766 6.17819e-06 0)
(2.4684e-05 1.07885e-05 -1.91673e-19)
(0.000139172 0.000216837 0)
(1.19563e-05 -8.33102e-07 0)
(9.35069e-06 -9.57365e-07 0)
(0.000835546 0.00014778 1.13735e-20)
(0.000811082 -1.82191e-05 1.79527e-19)
(3.82251e-05 0.000258964 -1.16359e-23)
(0.000156467 0.00026761 -1.84148e-18)
(0.000610942 0.000326343 -8.56773e-20)
(0.000901869 0.000112802 6.02013e-19)
(0.000607616 -0.000160239 6.74411e-19)
(0.00035858 0.00111457 0)
(0.000481141 0.000575392 2.71466e-18)
(8.8453e-05 0.000139139 -1.80269e-18)
(1.55655e-05 -2.18842e-07 0)
(0.000822577 -6.3464e-05 3.64078e-20)
(1.41259e-05 3.19273e-05 1.64404e-18)
(0.000895047 3.54813e-05 2.71056e-19)
(-3.11135e-05 6.85302e-05 3.81189e-18)
(0.000926771 4.15562e-05 -2.68925e-19)
(0.00133584 0.000153799 7.47136e-19)
(2.95483e-05 -9.6577e-06 8.25478e-20)
(3.12654e-05 2.4117e-06 -8.58889e-19)
(5.07803e-05 0.000135496 0)
(0.000918761 8.82312e-05 5.98258e-19)
(0.000498464 0.000366878 2.37086e-19)
(0.000619876 1.73382e-05 -3.88943e-20)
(0.000786859 3.79335e-06 2.5732e-19)
(0.000730378 -0.000144776 0)
(0.00632097 0.0108954 -1.68072e-19)
(0.00637874 0.0109732 4.05861e-19)
(0.00615997 0.0107301 -6.18482e-19)
(0.00650127 0.0111322 -8.0986e-20)
(3.1974e-05 0.000113004 8.00328e-19)
(0.000929019 6.1488e-05 1.44286e-22)
(0.00641132 0.0110057 -3.86486e-19)
(0.00628194 0.0108451 5.48505e-19)
(0.00608007 0.0106719 -4.16849e-19)
(0.00652179 0.0111647 -6.81456e-20)
(7.89441e-05 0.000492393 -2.01773e-20)
(5.13343e-05 -0.000193584 -7.92605e-19)
(0.000642953 -1.99928e-05 -7.66373e-19)
(0.000730511 0.000219529 0)
(0.000800301 1.78093e-07 0)
(0.000189092 0.000386314 3.36221e-19)
(0.000602689 0.000510929 -5.41737e-19)
(5.97999e-06 -1.0498e-06 1.78347e-19)
(0.00020004 0.000466882 -7.3823e-19)
(0.0010216 0.000979347 -1.12676e-19)
(0.000752829 0.00016626 0)
(0.00079478 0.000184947 1.30984e-19)
(0.00635017 0.00588321 1.13183e-18)
(0.000736483 0.00113107 8.26498e-20)
(3.57411e-05 3.47284e-05 -7.44489e-20)
(0.000807803 1.07381e-05 0)
(0.000871163 2.32791e-05 -3.56808e-20)
(2.97951e-05 2.20731e-06 -1.96679e-19)
(2.59659e-05 3.55015e-06 1.92949e-19)
(0.000834659 1.32185e-05 5.37056e-19)
(0.000983596 0.000113568 6.5818e-19)
(0.000538834 4.5154e-05 0)
(0.000222104 -0.000273645 -3.98124e-19)
(0.000919964 0.000143218 3.89477e-19)
(3.66875e-06 -4.84116e-05 2.0296e-19)
(0.00145391 0.000442135 -2.58066e-18)
(0.000564569 -1.2585e-05 0)
(0.000799473 0.000142263 3.75362e-19)
(9.59672e-05 0.000387863 0)
(0.00118865 0.00816136 4.62054e-19)
(0.000496707 0.000497672 -1.22427e-18)
(0.000540471 0.00101727 -1.83715e-19)
(0.000887561 1.43953e-05 -1.46015e-19)
(1.10168e-05 2.255e-05 0)
(0.000960261 7.80978e-05 6.11451e-19)
(0.00410625 0.00739517 8.14322e-20)
(0.00417105 0.0074731 4.73063e-20)
(0.00450073 0.00751729 4.54104e-19)
(0.00444592 0.00754287 -3.29468e-19)
(0.00647519 0.0111092 8.10632e-20)
(0.00391486 0.00714607 -9.58103e-22)
(0.00550792 0.00780018 -5.64774e-19)
(0.00409789 0.00737164 5.21863e-21)
(0.00518907 0.00785988 5.1171e-19)
(0.00407969 0.00734003 -4.87264e-20)
(0.00495435 0.0077194 0)
(0.00408495 0.00736433 -8.56649e-20)
(0.00474316 0.00759025 4.92551e-19)
(0.00409819 0.00737592 8.75195e-20)
(0.00457585 0.00752989 0)
(0.00428429 0.00742161 1.39751e-19)
(0.00423881 0.00759757 5.80719e-19)
(0.00446836 0.00752839 -5.55566e-19)
(0.00438859 0.00750605 3.71398e-19)
(0.00422753 0.00752413 2.87815e-19)
(0.00643051 0.0110424 -4.97759e-21)
(0.00411769 0.00740127 3.11616e-20)
(0.00645865 0.0110723 0)
(2.0935e-05 4.64333e-06 -1.89811e-19)
(0.00200114 0.00654641 2.28184e-19)
(0.00083818 -5.89592e-05 1.09695e-19)
(0.000853069 2.82765e-06 0)
(8.51344e-07 5.98687e-07 -3.99008e-19)
(-3.03572e-05 -8.90948e-05 6.90937e-19)
(2.33644e-05 5.27399e-05 2.08849e-18)
(0.000836764 0.000185772 -9.00437e-20)
(0.000801484 8.3507e-06 7.0619e-19)
(3.39104e-07 -1.1374e-07 3.09908e-19)
(1.41218e-05 -2.90534e-05 -1.84515e-18)
(0.000763652 2.67261e-05 1.63107e-19)
(0.000872148 0.000125081 -3.07897e-20)
(0.000800993 -7.32008e-06 1.48091e-19)
(0.000431002 0.000679284 0)
(1.1836e-05 -0.00013566 1.1511e-18)
(0.00087317 1.34313e-06 1.52484e-19)
(1.82485e-05 2.14699e-05 0)
(0.00011928 0.000554557 -6.3113e-19)
(0.000613304 0.000585787 1.31765e-18)
(0.000331623 0.000757146 0)
(0.000802088 -1.48137e-05 0)
(0.000801756 3.05368e-06 1.17663e-18)
(1.53698e-05 4.53325e-05 -3.51409e-18)
(1.43756e-05 5.83633e-06 3.73527e-19)
(0.00011651 0.000138304 0)
(3.61224e-05 -3.88162e-05 0)
(5.92791e-05 0.000107304 2.00949e-19)
(0.000942221 0.000190437 3.50332e-19)
(0.000800846 1.46872e-05 -1.39618e-18)
(2.10019e-05 3.01263e-05 0)
(0.000419007 3.78249e-06 -6.04463e-20)
(0.000800031 3.5951e-05 -1.56307e-19)
(0.000849149 4.56702e-05 1.06493e-18)
(0.000254257 0.000542181 6.32094e-19)
(0.000883495 0.000157608 0)
(1.40682e-05 -2.01286e-05 5.3847e-19)
(1.55291e-06 -2.79485e-06 -3.19884e-19)
(0.000949009 3.42264e-05 0)
(0.00104642 0.00226984 0)
(0.00090942 1.61182e-06 0)
(0.00100674 0.00020867 4.27053e-19)
(0.000818558 -3.70467e-05 -2.84201e-19)
(0.000941012 0.000111881 -6.84576e-19)
(0.000801154 3.58538e-06 0)
(4.04489e-05 6.40933e-05 -1.71523e-19)
(0.000174715 0.000323393 1.0809e-18)
(0.000800726 1.34529e-05 -2.3986e-23)
(0.00110436 0.000209519 -6.6859e-19)
(0.00108867 0.000128815 0)
(1.95714e-06 4.19965e-06 2.50964e-19)
(1.48462e-05 -1.28538e-05 -1.94265e-19)
(0.00055528 4.62859e-05 6.9483e-21)
(-4.62577e-06 -6.33678e-05 0)
(0.00107407 0.000256703 9.49711e-19)
(0.00502869 0.00974818 -2.82926e-19)
(0.00312147 0.0096168 1.27246e-18)
(2.03904e-05 -9.46301e-05 -1.91274e-19)
(3.97777e-05 -7.12723e-05 1.85896e-18)
(0.00119064 0.000256609 1.67302e-19)
(0.00133094 0.00107627 2.34039e-19)
(0.000810621 2.70423e-06 -7.36004e-19)
(0.000198251 0.000949532 -2.38195e-19)
(0.000819193 0.000945674 -2.18538e-19)
(0.000800316 -2.10768e-06 0)
(8.19445e-05 0.000612184 0)
(9.45319e-05 0.000277788 -3.65266e-23)
(0.000719489 -4.71577e-05 -1.67386e-23)
(0.000826525 6.93928e-05 1.52562e-19)
(0.00263171 0.00206605 -1.23119e-18)
(0.00176049 0.00923786 -1.17197e-19)
(0.000834518 6.86455e-05 4.92177e-19)
(0.00632054 0.00405262 -1.7615e-19)
(0.0067209 0.0115573 -1.36526e-20)
(0.0047341 0.00784384 4.93186e-21)
(0.000805169 1.36193e-05 -2.16572e-18)
(0.000842454 1.48332e-06 7.39751e-24)
(5.85003e-06 -5.69894e-06 -3.4793e-19)
(4.53155e-05 8.43488e-05 -3.49193e-19)
(6.25345e-05 0.000262154 8.75061e-19)
(9.14794e-06 1.40582e-05 4.90284e-19)
(8.97211e-05 0.000224103 3.69682e-19)
(0.000820165 1.60893e-05 0)
(0.00534815 0.00949236 1.9498e-20)
(0.00154544 0.000638164 -2.61174e-20)
(0.00081939 3.97076e-05 3.60078e-19)
(1.8754e-05 -7.40644e-05 0)
(0.00184817 0.000749768 5.45905e-19)
(7.60987e-06 6.10574e-06 -2.70087e-19)
(3.11914e-05 2.56187e-05 9.7158e-20)
(0.00133488 0.0013982 6.36547e-19)
(0.000738904 4.96954e-05 1.83054e-19)
(2.32347e-06 -8.95767e-07 -1.7016e-19)
(0.00206396 0.00156286 -1.05567e-18)
(0.000126686 0.000172792 -8.18577e-19)
(0.00392038 0.00848796 -1.09076e-18)
(3.57351e-06 1.06269e-06 8.8121e-20)
(0.000101871 -5.38564e-05 -1.25799e-18)
(3.74393e-05 -5.43729e-05 4.05541e-20)
(0.0015302 0.000987927 0)
(0.00104273 0.000140287 -4.01125e-22)
(0.000453996 0.00084681 -4.0197e-20)
(0.000803317 2.7671e-05 -2.34014e-19)
(8.69495e-05 0.000179106 7.359e-19)
(2.14855e-05 -5.47904e-05 4.03898e-19)
(1.65712e-05 1.34051e-05 -9.46869e-20)
(2.89959e-05 8.62759e-05 -3.20213e-19)
(0.000214695 -0.000183818 -5.4547e-19)
(0.0032504 0.00346633 2.9074e-21)
)
;

boundaryField
{
    back
    {
        type            empty;
    }
    ingreso
    {
        type            fixedValue;
        value           uniform (0.0008 0 0);
    }
    salida
    {
        type            zeroGradient;
    }
    front
    {
        type            empty;
    }
    defaultFaces
    {
        type            noSlip;
    }
}


// ************************************************************************* //
