/*--------------------------------*- C++ -*----------------------------------*\
  =========                 |
  \\      /  F ield         | OpenFOAM: The Open Source CFD Toolbox
   \\    /   O peration     | Website:  https://openfoam.org
    \\  /    A nd           | Version:  7
     \\/     M anipulation  |
\*---------------------------------------------------------------------------*/
FoamFile
{
    version     2.0;
    format      ascii;
    class       volScalarField;
    location    "72";
    object      p;
}
// * * * * * * * * * * * * * * * * * * * * * * * * * * * * * * * * * * * * * //

dimensions      [0 2 -2 0 0 0 0];

internalField   nonuniform List<scalar> 
591
(
0.000123885
0.000123902
0.000123907
0.000123859
0.000123862
0.000123931
0.000123925
0.000123894
0.000116987
0.000123912
0.000124092
0.000122829
0.0001239
0.00011973
0.000123894
0.000123942
0.000123876
0.000123938
0.000121954
0.000123273
0.000123875
-3.52615e-06
0.000124089
0.000123878
0.000124047
0.000123899
0.000124
0.000124007
0.000123912
0.00012392
0.000124066
0.000124042
0.000124061
0.00012406
0.000124062
0.000123386
0.000124057
0.000123878
0.000124084
0.000124003
0.000123964
0.000124054
0.000123907
0.000123928
0.000124051
0.000124071
0.000119241
0.000124075
0.000123911
0.00012403
0.000124019
0.000124052
2.39423e-05
3.05878e-05
4.78418e-05
0.000123905
0.000124079
0.000124067
0.000124072
0.000123885
0.000123972
0.000123902
0.0001239
0.000123949
0.00012257
0.000123903
0.000123905
0.000124069
0.000120722
0.000123916
0.000123911
0.000124076
0.000124045
0.000124055
0.000124061
0.000124037
0.00012388
0.000124073
0.000123881
0.000123817
0.000123659
0.000124078
0.000124038
0.000124017
0.000124085
0.000123892
0.000123983
0.000124067
0.00012403
0.000123782
0.000124042
0.000123988
0.000124004
0.000123885
0.000124083
0.000124038
0.000123589
0.000123488
0.000123647
0.000124089
0.000123997
0.000123913
0.000124093
0.000123857
0.000124094
0.000123904
0.000123901
0.000124043
0.000124085
0.000124088
0.000123976
0.000124064
0.000123917
0.000124069
0.000124087
0.000124067
0.000124021
0.000124016
0.00012358
0.000123988
0.000123904
0.000123898
0.000123981
0.000123884
0.000124056
0.0001202
0.000124093
0.000124069
0.000123656
0.000124062
0.000123894
0.000123581
0.000124028
0.000124024
0.000124065
0.000123909
0.000122626
0.000124091
0.000123896
0.000123578
0.000123643
0.000123991
0.000124074
0.000124085
0.000124079
7.61582e-06
3.67815e-06
2.07084e-06
3.81585e-05
3.66985e-05
5.6605e-06
3.83093e-05
1.57391e-05
3.72901e-05
1.78057e-05
0.000123903
0.000123894
0.000124081
0.000124074
0.000124082
0.00012408
0.000124073
0.000124069
0.00012408
0.000124079
0.000124043
0.000124082
0.000124078
0.000124084
0.000124022
0.000123393
0.000124084
0.000122121
0.000124064
0.000124065
0.000124012
0.000123913
0.000124065
0.000124079
0.000124077
0.000123491
0.000122472
0.000123049
0.000123445
0.000124069
0.000124075
0.000123987
0.000123875
0.00012407
0.000122967
0.000123301
0.000123876
0.000124063
0.000123758
0.000124057
0.000124073
0.000124047
0.000123728
0.000123866
0.000124071
0.000124077
0.000124075
0.000123872
0.000124059
0.000123869
0.000124086
0.000123897
0.000123896
0.000124083
0.00012369
0.000123867
0.000123907
0.000123543
0.000124034
0.000123689
0.000123977
0.000123988
0.000124062
0.000123457
0.000123966
0.000123859
0.00012386
0.000124038
0.000123797
0.000123952
0.000123866
0.000123777
0.000123853
0.000124087
0.000123842
0.000124083
0.000123932
0.000124061
0.000123908
0.000123909
0.000124089
0.000123801
0.000124076
0.000123791
0.000123838
0.000123902
0.000123881
0.000123918
0.000123904
0.000123674
0.000123878
0.00012383
0.000124046
0.000123897
0.000123747
0.000124033
0.000123299
0.000123856
0.000123193
0.000123075
0.000123888
0.000123853
0.000123891
0.000123887
0.000123855
0.000124088
0.000123933
0.000124017
0.000123944
0.000123937
0.00012395
0.00012404
0.00012369
0.000124083
0.000123727
0.000123617
0.000123921
0.000124059
0.000123639
0.00012408
0.000123987
0.000124012
0.000124037
0.000123912
0.000123883
0.000123714
0.000123848
0.000123877
0.000123928
0.000123983
0.00012405
0.000124067
0.000124073
0.000123832
0.000123937
0.000124061
0.000124067
0.000124063
0.000123856
0.000124075
0.000123948
0.000124056
0.000123818
0.000124075
0.000123807
0.000124052
0.000123942
0.000123884
1.16401e-05
2.19105e-05
0.000123835
0.000123909
0.000124086
0.000123838
0.000124086
0.000123919
0.000124075
0.000124053
0.00012379
0.000124047
0.000123877
0.000124082
0.000123911
-2.09763e-07
0.000123773
0.000124058
0.000124053
0.000123751
0.000123898
0.000123939
0.000124048
0.000123808
0.000124069
0.000123954
0.000123903
0.000124046
0.000123855
0.000123782
0.000123815
0.000123913
4.7473e-05
0.000124063
0.000124046
0.000123902
0.00012407
0.000123982
0.000123925
0.000123906
0.000123894
0.000124056
0.00012392
0.000123828
0.00012395
0.000123832
0.000124069
0.000123839
0.000123895
0.000123931
0.000124016
1.98705e-05
2.73068e-05
3.42937e-05
9.63749e-06
0.000123879
3.30539e-05
2.60137e-05
0.000124066
1.90711e-05
1.70273e-05
3.81837e-05
7.57441e-06
3.99358e-05
5.60324e-06
4.08304e-05
3.68748e-06
4.28134e-05
1.87483e-06
3.64026e-05
2.31919e-05
2.94413e-05
1.49899e-05
0.000123759
0.000124077
0.000123946
0.000123953
0.000120897
0.000123998
0.000124072
0.000124042
0.000123846
0.000124077
0.000124078
0.000124058
0.000124055
0.00012382
0.000123895
0.000124061
0.000124067
0.000123905
0.000123776
0.000123844
0.000123409
0.000123861
0.00012409
0.000124062
0.000123906
0.000124085
0.000123751
0.000123931
0.00012371
0.000122862
0.000124056
0.000124068
0.00012409
0.000123764
0.000123947
0.000123709
0.000123919
0.000123909
2.60488e-05
2.1875e-05
3.30336e-05
1.16161e-05
0.000124094
0.000123757
1.98172e-05
2.82557e-05
3.56004e-05
9.58614e-06
0.000123909
0.000124007
0.000123861
0.000123871
0.000123896
0.000124027
0.000123819
0.000124052
0.000123993
0.000123102
0.000123874
0.000123841
5.93552e-05
0.000123226
0.000124082
0.000123888
0.000123784
0.000124071
0.000124074
0.000123871
0.00012367
0.000123899
0.000123962
0.000123752
0.000124028
0.000122911
0.000123833
0.00012385
0.000124036
0.00010088
0.000123884
0.000123488
0.000123818
0.000124083
0.000123719
1.08939e-05
2.11109e-05
3.53654e-05
2.82052e-05
1.36597e-05
5.37982e-08
4.20782e-05
2.68868e-06
4.01568e-05
4.76057e-06
3.94151e-05
6.81311e-06
3.86221e-05
8.85551e-06
3.72879e-05
1.36717e-05
3.17252e-05
3.05889e-05
2.39379e-05
2.52595e-05
1.77627e-05
1.2936e-05
1.57051e-05
0.000124076
0.000102413
0.000123878
0.000123811
0.00012408
0.000123972
0.000124086
0.000123803
0.000123932
0.000124048
0.000124043
0.00012405
0.000123804
0.000123902
0.000123804
0.00012401
0.00012384
0.000124081
0.000123949
0.00012378
0.000123785
0.000123913
0.000123905
0.000124087
0.000124078
0.000124087
0.000124047
0.00012409
0.000123719
0.000123899
0.000124082
0.000123845
0.000123974
0.000123904
0.000123944
0.000123786
0.000124047
0.000124045
0.000123359
0.000121373
0.000123088
0.000123632
0.0001239
0.00012373
0.000123911
0.000124087
0.000124051
0.000123905
0.00012352
0.0001235
0.000124082
0.000124049
0.00012392
0.000124015
0.000123559
5.83167e-05
4.01181e-05
0.000124021
0.000124038
0.0001234
0.000122747
0.000123886
0.000123629
0.000123375
0.000123897
0.000123801
0.000124071
0.000123929
0.000123958
0.000119006
5.4477e-05
0.000123927
8.12356e-05
1.86116e-06
-3.8159e-07
0.000123896
0.000123865
0.000124048
0.000124089
0.000124078
0.000124081
0.000124081
0.000123882
-2.3078e-06
0.00012283
0.00012392
0.000124027
0.000122013
0.00012408
0.00012408
0.000122287
0.000123996
0.00012405
0.000121695
0.000124084
7.63452e-05
0.000124078
0.000123725
0.000124042
0.000122376
0.000123608
0.000123667
0.000123929
0.000124087
0.000124035
0.000124079
0.000124091
0.000123899
0.000116177
)
;

boundaryField
{
    back
    {
        type            empty;
    }
    ingreso
    {
        type            zeroGradient;
    }
    salida
    {
        type            fixedValue;
        value           uniform 0;
    }
    front
    {
        type            empty;
    }
    defaultFaces
    {
        type            zeroGradient;
    }
}


// ************************************************************************* //
