/*--------------------------------*- C++ -*----------------------------------*\
  =========                 |
  \\      /  F ield         | OpenFOAM: The Open Source CFD Toolbox
   \\    /   O peration     | Website:  https://openfoam.org
    \\  /    A nd           | Version:  7
     \\/     M anipulation  |
\*---------------------------------------------------------------------------*/
FoamFile
{
    version     2.0;
    format      ascii;
    class       surfaceScalarField;
    location    "72";
    object      phi;
}
// * * * * * * * * * * * * * * * * * * * * * * * * * * * * * * * * * * * * * //

dimensions      [0 3 -1 0 0 0 0];

internalField   nonuniform List<scalar> 
1111
(
6.67176e-09
1.31288e-08
-1.59537e-08
-3.84681e-09
6.69122e-09
-1.18285e-08
1.18091e-08
-1.47478e-08
5.39408e-09
9.1015e-09
2.52206e-10
6.48108e-10
-7.44851e-10
-1.42949e-08
1.43917e-08
-1.42297e-08
1.39732e-08
9.0468e-10
-1.6527e-09
1.4904e-08
2.17728e-09
-3.45145e-09
9.68567e-09
-1.02173e-08
3.98308e-09
-6.70871e-09
-1.26184e-08
1.25956e-08
6.73153e-09
-5.04302e-08
-2.59573e-08
7.63875e-08
-8.13587e-09
7.64779e-09
7.17931e-09
3.45673e-09
3.51455e-10
-3.53819e-09
-2.69991e-10
1.57412e-08
-1.60882e-08
-2.31037e-08
2.34507e-08
-9.65121e-09
-7.89643e-09
8.79173e-09
8.75591e-09
-3.54544e-08
1.76432e-08
-3.2298e-08
5.01092e-08
9.51684e-09
-1.96064e-09
-1.42649e-08
-1.15408e-09
1.9964e-09
-3.46405e-09
2.62172e-09
-3.83581e-09
1.33394e-08
1.95337e-09
-1.1457e-08
8.82886e-09
-2.53554e-09
-1.50397e-08
8.74639e-09
3.75671e-08
-3.03109e-08
-7.25617e-09
-1.94386e-08
3.59585e-10
1.7285e-08
1.79401e-09
-9.35465e-10
4.16984e-09
-1.78722e-08
1.46378e-08
-6.12211e-08
-3.9629e-09
6.5184e-08
1.48124e-10
-1.23789e-09
-3.48501e-10
1.43827e-09
-1.56869e-09
-1.35965e-08
-1.34302e-10
-2.85464e-10
2.36832e-10
1.82935e-10
-1.0246e-08
-8.33111e-09
1.27887e-08
5.78843e-09
6.97515e-10
-2.1298e-09
-8.38036e-09
9.81265e-09
8.28107e-09
8.65933e-10
-9.26331e-09
1.16312e-10
-2.86624e-09
-7.89604e-09
1.09724e-08
-2.10138e-10
1.1394e-08
-8.00815e-10
-1.76436e-09
-9.15651e-10
9.05122e-10
3.80605e-11
-2.75314e-11
-1.92406e-10
7.89892e-10
3.37654e-10
-9.3514e-10
-5.23251e-10
-3.92781e-11
5.57995e-10
4.53425e-12
-1.06443e-11
-9.08549e-10
1.06501e-10
8.12692e-10
-7.81161e-11
-8.48179e-10
8.70928e-10
-1.84569e-08
-1.85258e-09
-4.37555e-10
4.75444e-11
-1.33241e-10
1.34024e-08
-1.32458e-08
4.01325e-09
-3.91066e-10
5.96351e-10
3.64616e-10
-5.699e-10
-2.03938e-10
-1.92344e-09
1.5183e-09
6.0908e-10
-2.10605e-09
1.02347e-08
-1.15801e-08
-3.20411e-10
-1.75194e-10
5.80501e-11
-8.78866e-09
1.02799e-08
-9.62714e-09
1.21471e-08
-1.71308e-08
4.77221e-09
2.11526e-10
7.03354e-11
-1.78846e-10
-2.119e-10
2.12524e-10
8.31624e-10
-1.39026e-10
-5.95223e-08
7.4236e-08
-1.47136e-08
1.08204e-09
-2.95038e-10
-1.22825e-09
4.4125e-10
1.14128e-09
1.03192e-08
-1.37249e-08
2.2644e-09
-1.42227e-09
7.41462e-09
-8.8173e-09
2.82495e-09
-6.60624e-09
5.7063e-09
5.58429e-09
-4.68435e-09
-7.40212e-09
-1.94522e-09
1.91359e-09
7.43375e-09
-1.817e-10
-9.09246e-08
9.13099e-08
-2.03697e-10
-2.56574e-10
-8.9761e-08
9.01698e-08
-1.52276e-10
8.3087e-08
-1.49479e-09
1.10843e-10
-8.17031e-08
-3.03101e-09
-3.22742e-10
7.20564e-10
8.70277e-10
-5.08801e-10
3.96965e-09
-1.37656e-09
3.37077e-09
-5.96386e-09
-1.02072e-09
9.38201e-10
-1.49651e-08
6.60968e-09
9.55346e-09
1.01442e-09
-1.02965e-08
-2.7137e-10
-6.19354e-09
1.32206e-08
1.21805e-09
-8.24515e-09
1.43498e-08
-4.37152e-09
3.56694e-09
-1.35453e-08
1.54157e-08
1.7035e-09
-1.69042e-09
-2.28725e-10
-2.00509e-08
-7.38793e-09
2.76675e-08
1.4102e-08
-8.54087e-09
-2.02428e-09
7.83904e-09
-1.20083e-08
-4.60517e-11
1.37176e-10
-1.31938e-09
-3.63003e-08
-2.32221e-08
8.19681e-09
1.88052e-10
3.76223e-09
-7.02521e-09
1.09289e-08
6.37621e-09
-6.32617e-10
3.47665e-10
5.09855e-10
-2.24903e-10
5.83463e-09
-4.71685e-09
3.61507e-09
-4.73285e-09
-5.22686e-10
-6.63459e-10
2.77596e-10
7.16124e-10
-6.48901e-10
-5.75985e-11
-9.52962e-10
8.18154e-10
-1.79257e-08
2.46217e-09
1.518e-09
1.39455e-08
2.50776e-10
-7.41288e-10
-1.42105e-10
-4.02814e-09
-1.4996e-08
1.09844e-09
5.63225e-09
1.19658e-08
-5.22561e-09
-1.23724e-08
1.64548e-08
6.38992e-10
-1.59224e-08
-1.17143e-09
-7.15557e-10
4.90072e-10
5.7315e-10
-5.52213e-10
2.85538e-10
2.66674e-10
-7.29565e-09
-3.65326e-09
4.34267e-09
-2.72916e-10
4.10075e-10
-1.37158e-10
1.25428e-09
-1.55284e-08
-8.4598e-10
9.48991e-09
-1.075e-08
-1.02871e-09
-6.09811e-10
1.2799e-08
4.39055e-09
-4.13549e-09
-1.3054e-08
1.51236e-10
7.07351e-09
-7.81573e-09
6.44852e-09
-1.76858e-09
-8.77108e-09
8.0367e-09
2.50296e-09
-1.8276e-09
6.41511e-10
-1.38099e-08
-1.57083e-10
-1.15834e-10
-3.6846e-11
9.19766e-10
-8.28504e-09
7.37171e-10
1.73146e-08
-1.59694e-09
-1.27491e-08
1.40675e-08
-1.31839e-09
1.21399e-08
1.40178e-08
-1.55471e-08
-1.06106e-08
-6.24846e-10
1.11438e-09
-4.89536e-10
6.73528e-10
-7.44759e-10
7.12313e-11
9.48696e-10
-1.05062e-09
1.01924e-10
1.53992e-09
-1.26251e-09
-2.77415e-10
-1.08359e-08
6.70681e-10
1.01653e-08
2.20786e-09
-6.67935e-10
8.93687e-09
-1.53327e-08
7.17531e-09
-8.63443e-09
5.4916e-11
3.79848e-09
-3.96666e-10
-2.55931e-09
2.61423e-09
-6.79655e-09
8.12383e-09
-1.32728e-09
-6.74532e-10
4.19423e-09
4.49949e-10
1.72716e-08
-1.44953e-08
-1.63504e-09
-5.81277e-09
5.30933e-09
-8.73116e-10
-2.14772e-10
6.09904e-09
-6.11555e-09
1.65115e-11
6.9657e-09
4.45323e-09
6.37168e-11
-1.60251e-08
1.04658e-08
1.76991e-08
5.72853e-09
8.31068e-09
8.23504e-09
-6.84084e-09
1.20173e-09
-1.20377e-08
7.33764e-10
8.68079e-10
-1.28631e-08
3.04528e-09
-4.31057e-10
1.20119e-08
-1.13729e-08
-2.05756e-10
-9.01067e-10
-1.37891e-08
7.43225e-09
8.07175e-10
-2.20142e-11
-8.91275e-09
5.10126e-09
-3.05396e-08
-1.25029e-08
-2.70425e-09
1.41813e-09
1.40137e-08
1.09598e-08
-1.06999e-08
-1.42736e-08
1.55526e-08
-3.11062e-09
-1.2442e-08
1.64831e-09
3.92588e-09
-1.22964e-09
-9.31019e-10
-9.27188e-10
1.23527e-09
6.22936e-10
-2.58702e-10
3.82205e-10
3.86352e-10
6.2136e-08
-6.21607e-08
2.46744e-11
6.20579e-08
-6.23613e-08
3.03444e-10
8.36767e-10
6.47451e-08
-6.55719e-08
8.2682e-10
6.41371e-08
6.08034e-10
-2.25308e-10
-6.65174e-08
9.45467e-10
-6.20445e-08
6.19109e-08
1.33584e-10
1.31596e-09
-6.78334e-08
-6.22034e-08
1.58885e-10
1.23846e-08
-8.79866e-10
1.48828e-09
-3.70538e-09
3.09697e-09
3.66842e-10
-1.22864e-09
1.01818e-09
-6.78596e-10
1.43112e-09
-1.68423e-09
9.31712e-10
1.46599e-09
-1.59889e-09
2.70076e-10
-7.31393e-11
-3.3872e-09
2.90017e-09
-2.13941e-09
2.62645e-09
-6.25579e-10
-2.7999e-09
2.54562e-09
-3.68835e-09
-5.71285e-09
6.13528e-10
-6.70439e-10
1.30735e-09
1.14195e-09
-6.54545e-09
7.97938e-09
3.0193e-09
1.99315e-08
-4.37894e-09
-7.5567e-10
2.94379e-10
1.07482e-09
-1.00558e-08
-2.62444e-08
5.39274e-09
-4.36945e-09
-3.14142e-09
2.11812e-09
1.18422e-10
2.0388e-11
4.19184e-10
-2.67062e-09
3.41167e-09
8.82133e-09
8.12532e-10
-3.77913e-10
2.15408e-09
-2.40174e-09
2.02696e-09
1.47681e-08
1.32635e-08
-2.69743e-08
3.26598e-08
6.31294e-09
-2.28327e-08
-1.04545e-08
1.83588e-08
-1.78748e-08
1.04757e-08
-1.57714e-10
-1.25544e-10
-1.31563e-09
-1.79207e-09
-2.92147e-09
3.78984e-09
1.49459e-08
-5.97034e-10
-1.37073e-08
-3.74308e-10
-2.55503e-09
1.29429e-10
1.54655e-08
1.76615e-08
1.36897e-08
6.96956e-10
-1.61523e-09
-1.27714e-08
-1.68285e-09
6.00874e-09
1.24225e-08
-6.12936e-10
-1.13631e-09
-3.57227e-09
2.75154e-09
3.72089e-09
2.46236e-09
1.43362e-08
4.18307e-09
-1.41287e-08
1.78167e-08
-1.77235e-09
2.64892e-09
-3.50215e-09
1.88425e-09
-4.78476e-09
1.2945e-08
-1.19961e-08
-1.39995e-08
4.2566e-10
8.78909e-09
-1.85187e-09
1.55015e-09
1.60907e-09
-8.66454e-09
6.86364e-10
-4.52476e-09
-6.04324e-09
1.222e-08
-1.48414e-08
1.23392e-09
1.66672e-09
-2.21778e-09
1.66594e-08
-1.61083e-08
-1.01576e-09
1.41084e-08
2.97247e-09
-4.30465e-09
-1.40005e-08
7.44575e-09
-1.72311e-08
-8.08939e-09
6.67522e-09
5.86444e-09
1.44805e-08
-9.82458e-09
3.08099e-09
9.24656e-09
9.87704e-09
3.83087e-09
-4.15337e-09
2.16048e-08
-1.90214e-08
4.86236e-09
-1.03645e-08
2.18826e-09
5.58097e-09
1.37537e-08
-1.82462e-10
1.272e-08
-1.35533e-08
-1.84103e-09
2.09456e-09
-1.13371e-09
8.80175e-10
1.09397e-08
-6.38613e-09
7.41224e-09
-1.07647e-08
1.41454e-09
-4.74979e-09
1.13859e-08
-1.18617e-08
-7.53496e-09
9.11626e-09
9.35836e-09
1.28137e-08
7.80252e-10
-1.37764e-08
1.56792e-09
8.09303e-10
-1.10279e-08
-6.71663e-09
1.02095e-08
-1.56239e-09
2.51995e-09
-8.93658e-09
4.81411e-09
-5.19281e-09
1.14553e-08
-3.49206e-09
-1.16511e-08
3.68787e-09
-4.49647e-09
1.1202e-08
1.96567e-09
1.15239e-09
-5.03613e-09
-1.76452e-08
1.04097e-08
1.22716e-08
7.96243e-10
-1.09075e-08
-9.90098e-09
1.57723e-08
1.24581e-08
2.82424e-09
-9.70139e-09
-1.3277e-08
-2.94155e-10
-1.27162e-08
1.83102e-10
-7.4533e-10
1.15346e-08
1.24911e-08
-8.21514e-09
1.64939e-08
-1.5881e-08
3.57012e-09
-4.50071e-10
1.72995e-09
1.26656e-08
-3.89326e-09
-1.26146e-08
-5.11953e-09
1.39008e-09
4.59753e-09
1.21176e-08
-7.28643e-09
8.556e-10
-1.4904e-09
1.0652e-09
-1.41582e-09
5.88795e-09
2.61925e-08
-2.52864e-10
-1.06514e-08
1.09043e-08
2.84626e-08
-2.22151e-08
2.20045e-08
1.96535e-08
-1.26859e-08
-2.65532e-09
1.49914e-08
2.20515e-10
-1.21369e-08
-3.58786e-10
-6.02811e-09
-1.90301e-09
2.28192e-09
1.58677e-09
-2.40173e-10
-1.09826e-08
1.13143e-08
-9.15584e-11
3.08833e-09
-5.38291e-09
-1.08847e-08
1.04736e-08
-8.62824e-10
-1.06472e-08
-1.24468e-10
-1.10349e-08
-2.69089e-09
-1.19522e-08
2.21714e-09
7.88253e-09
5.12726e-09
-1.65045e-10
-1.17309e-08
1.16558e-08
6.15876e-10
-8.68668e-09
5.21361e-09
-1.32118e-09
2.45554e-09
-2.55586e-09
-1.30294e-08
-1.28747e-08
1.24568e-08
-1.02409e-08
-1.57843e-08
1.00002e-08
9.20083e-09
8.63806e-10
2.60947e-09
-1.32609e-08
1.12602e-08
1.68895e-09
3.97155e-09
3.28222e-10
-5.52689e-10
-2.98219e-10
-4.09129e-09
2.61253e-09
-1.07627e-09
2.40983e-10
-2.82584e-10
4.16006e-11
-2.62538e-09
1.29001e-08
2.18337e-09
2.56383e-09
-3.6687e-10
-1.5774e-09
-3.40218e-10
-2.43493e-09
-4.58097e-10
1.28583e-08
9.94868e-09
-3.85963e-10
6.93135e-09
-1.21841e-09
-5.32698e-09
-9.73087e-09
-5.09008e-09
1.85787e-10
5.51962e-11
4.85214e-09
1.31496e-09
-1.70746e-08
-4.44817e-10
-8.31577e-10
-2.71355e-09
9.9844e-10
2.86352e-09
6.19353e-08
-8.7175e-11
-6.18481e-08
6.23533e-08
1.87923e-10
-6.25413e-08
-1.41695e-08
-9.0845e-11
1.4536e-08
-2.75575e-10
2.94169e-09
-1.9232e-09
2.64565e-09
1.7975e-09
-4.44084e-09
-3.93129e-10
-5.71414e-10
4.63377e-10
-1.16867e-10
5.04545e-10
-3.51517e-10
1.94887e-08
1.10094e-09
-1.57375e-08
-2.07614e-10
-1.94277e-09
1.23571e-08
2.25128e-09
1.76995e-09
5.31066e-09
-2.03955e-09
-7.72331e-08
-2.41775e-08
-4.81928e-09
1.57939e-08
2.36476e-09
-3.5733e-10
-3.15387e-09
-1.20934e-09
4.84603e-10
-4.11573e-10
-1.073e-08
-3.33775e-10
1.10638e-08
-1.07654e-08
-6.62615e-09
1.06749e-08
-9.39314e-09
8.76725e-09
8.08924e-11
1.65634e-09
1.02228e-08
-1.00744e-08
-1.48351e-10
6.5829e-10
8.11024e-11
1.03807e-08
8.09212e-10
-9.32762e-10
-1.95685e-10
-1.42437e-08
-5.07273e-10
-1.36761e-08
1.24855e-08
-1.17543e-08
-6.60152e-08
6.49688e-08
1.04641e-09
3.23123e-10
-3.02735e-10
1.18638e-08
-2.95126e-10
1.25421e-11
-2.03597e-09
2.77653e-09
-3.43338e-09
-1.34923e-08
-1.63833e-09
2.57185e-09
-4.76141e-09
-1.39762e-08
1.66304e-09
5.59152e-09
9.57078e-09
-8.9161e-09
-3.22359e-10
2.72331e-11
-9.34158e-09
-1.31624e-08
1.49938e-10
-6.27075e-08
2.37245e-10
6.24702e-08
6.95807e-10
6.34413e-08
-2.2545e-10
-1.41e-09
-1.44536e-08
1.07253e-10
-6.33822e-08
6.3275e-08
1.8219e-10
-6.29272e-08
6.2745e-08
4.19948e-10
6.18062e-08
1.51278e-10
-6.19575e-08
6.16364e-08
1.69762e-10
-8.79014e-08
8.8511e-08
-1.56037e-12
9.33994e-08
-9.31067e-08
-2.68033e-10
-8.66402e-08
-4.34345e-10
9.33579e-08
-1.83748e-10
-8.49254e-08
-7.69315e-10
9.34884e-08
1.7291e-10
-5.2244e-10
1.96096e-09
9.23642e-08
-6.93281e-08
6.21488e-08
-6.23305e-08
-6.29641e-08
6.14929e-08
1.43514e-10
-3.04579e-09
2.88557e-09
-1.39685e-08
6.1524e-11
1.24263e-10
1.71501e-09
8.87758e-09
-1.14131e-08
3.8295e-08
-3.44819e-08
-1.66763e-08
1.37759e-08
-5.52293e-11
-2.21322e-10
2.02532e-10
7.77204e-10
-1.46987e-10
3.51662e-10
4.55123e-09
1.02773e-09
-3.69471e-09
-2.50656e-10
2.98201e-10
-1.92606e-10
-2.51425e-09
1.30526e-08
2.36178e-09
-1.44475e-08
-2.5824e-09
-3.45623e-09
5.62174e-09
1.04762e-09
-2.67976e-09
1.42344e-08
-1.14496e-09
-2.59172e-09
3.27873e-09
-8.16533e-09
-1.90463e-08
-1.33544e-08
7.86218e-09
5.91786e-09
-2.65677e-10
-5.4241e-10
3.09e-09
1.4452e-08
2.19019e-09
-1.73819e-09
-4.24018e-10
4.72085e-10
-2.62838e-10
1.59974e-08
-5.31009e-10
-1.58001e-08
-1.15351e-09
-1.05118e-09
3.09127e-10
-2.34132e-10
3.4778e-09
-1.67324e-08
5.28283e-10
-1.60143e-09
-2.20244e-09
-2.38133e-09
1.54739e-08
-9.06026e-08
-1.39773e-10
9.16891e-08
-1.91288e-10
-8.91765e-08
-4.77209e-10
9.31106e-08
-2.75989e-10
-9.29218e-08
-5.75974e-10
-1.69339e-09
1.65764e-08
9.19903e-08
-1.95525e-10
3.02578e-11
-2.21538e-10
1.00772e-08
2.52887e-09
-8.00623e-09
-1.20671e-08
-5.67744e-09
8.45248e-09
1.4325e-09
-6.86568e-09
-6.08777e-09
9.01087e-09
-1.22271e-10
1.01535e-08
1.94513e-08
-1.7878e-08
3.06653e-09
-1.25953e-08
3.04722e-09
-6.99734e-08
3.9582e-09
-2.04737e-08
-1.30846e-08
-5.30861e-10
-5.95951e-09
-1.52944e-08
9.11698e-09
-1.52065e-08
4.85596e-10
4.1033e-10
-1.76611e-09
-1.64324e-08
1.69277e-08
7.75402e-09
-8.07677e-09
-5.05711e-09
1.52132e-08
-1.70337e-09
7.24562e-10
-1.17014e-09
2.80898e-10
1.18895e-08
3.31914e-09
7.09168e-08
-1.81732e-08
8.18838e-10
-1.48933e-08
-2.58306e-10
-3.02871e-10
-9.01679e-11
6.0954e-08
-6.123e-08
-6.3352e-08
-6.31227e-08
-6.2823e-11
-2.62927e-10
-9.25961e-08
-6.04536e-08
6.24145e-08
6.50796e-08
-6.02806e-08
6.45572e-08
-6.04644e-08
6.37879e-08
-6.07324e-08
6.33535e-08
9.2319e-08
3.18539e-10
-6.41412e-09
7.51098e-08
-6.53765e-08
5.9921e-11
-5.9921e-11
8.00203e-10
-3.47163e-10
1.5494e-08
-5.53819e-11
5.53819e-11
3.89219e-10
1.5557e-09
1.38731e-08
1.331e-08
-2.76002e-09
3.74118e-09
6.41034e-09
1.91325e-09
4.04098e-10
-2.802e-10
-2.9716e-09
1.45361e-08
1.48458e-08
-4.27495e-09
1.18073e-08
2.11506e-10
1.68557e-10
2.84186e-09
-9.05496e-10
-1.62603e-09
-5.85658e-09
-1.93038e-10
-4.28641e-10
1.52933e-08
2.93531e-10
9.58541e-11
1.49384e-08
-2.60168e-08
1.76092e-08
2.62033e-09
1.34925e-09
2.46078e-09
-3.71501e-09
1.92053e-08
-1.79511e-08
-9.71618e-11
4.19386e-10
-1.44043e-09
-7.92162e-08
-7.07686e-08
1.38862e-09
-7.29118e-10
6.7653e-10
2.28995e-08
1.85563e-08
-6.36303e-09
8.88091e-11
-4.36817e-09
-2.45999e-09
2.9981e-08
1.48235e-10
1.48185e-08
7.35828e-08
6.68889e-11
5.32532e-10
-1.78686e-10
-2.40018e-10
-3.73711e-09
2.41551e-08
-1.48574e-08
1.07889e-09
-1.40705e-08
-6.43417e-11
2.03334e-08
-2.86409e-08
9.17099e-10
2.12522e-09
-4.24651e-10
)
;

boundaryField
{
    back
    {
        type            empty;
        value           nonuniform 0();
    }
    ingreso
    {
        type            calculated;
        value           nonuniform List<scalar> 
14
(
-1.54286e-08
-1.54288e-08
-1.54288e-08
-1.54288e-08
-1.54286e-08
-1.54283e-08
-1.54288e-08
-1.54288e-08
-1.54286e-08
-1.54286e-08
-1.54288e-08
-1.5428e-08
-1.5428e-08
-1.54286e-08
)
;
    }
    salida
    {
        type            calculated;
        value           nonuniform List<scalar> 2(1.01411e-07 1.14589e-07);
    }
    front
    {
        type            empty;
        value           nonuniform 0();
    }
    defaultFaces
    {
        type            calculated;
        value           uniform 0;
    }
}


// ************************************************************************* //
