/*--------------------------------*- C++ -*----------------------------------*\
  =========                 |
  \\      /  F ield         | OpenFOAM: The Open Source CFD Toolbox
   \\    /   O peration     | Website:  https://openfoam.org
    \\  /    A nd           | Version:  8
     \\/     M anipulation  |
\*---------------------------------------------------------------------------*/
FoamFile
{
    version     2.0;
    format      ascii;
    class       volScalarField;
    location    "4.4";
    object      p;
}
// * * * * * * * * * * * * * * * * * * * * * * * * * * * * * * * * * * * * * //

dimensions      [0 2 -2 0 0 0 0];

internalField   nonuniform List<scalar> 
5101
(
8.56628e-06
9.50474e-06
8.9675e-06
3.35183e-06
9.45157e-06
2.88166e-06
1.49597e-06
1.18352e-05
1.12087e-06
3.24627e-06
8.78725e-06
2.50004e-06
7.81672e-07
1.83688e-06
6.52209e-06
6.22759e-06
5.14063e-06
3.77175e-06
7.29034e-06
1.11214e-05
7.72678e-06
3.26248e-06
6.07634e-06
3.82404e-06
7.40332e-06
4.88785e-06
6.73204e-06
7.04094e-06
8.89601e-06
8.58815e-06
7.63037e-06
6.25546e-06
5.87387e-06
1.13556e-05
7.84619e-06
8.07993e-06
8.44207e-06
8.08013e-06
9.13891e-06
1.16093e-05
1.199e-05
1.58931e-06
7.09983e-06
6.05681e-06
9.06576e-06
6.19655e-06
9.25556e-06
3.57028e-06
8.24781e-06
7.23167e-06
9.59211e-06
8.22539e-06
7.87564e-06
9.40646e-07
1.1871e-05
8.97463e-06
8.32954e-06
1.13539e-05
1.17046e-05
5.19525e-06
1.29491e-06
6.84294e-06
1.18816e-05
8.4819e-06
6.85396e-06
9.6248e-06
1.63824e-06
4.96346e-06
7.66265e-06
1.19843e-05
3.06545e-06
1.10258e-05
1.18397e-05
6.59145e-06
5.61254e-06
1.13415e-05
3.70007e-06
1.12677e-05
1.15691e-05
2.68464e-06
1.18598e-05
2.02998e-06
3.75783e-06
7.745e-06
1.18651e-05
8.40429e-06
9.44952e-06
3.19017e-06
9.83768e-06
5.88921e-06
1.12109e-05
5.71981e-07
8.21479e-06
7.81703e-06
8.61234e-06
8.69986e-06
1.12623e-05
9.64883e-06
1.17584e-05
1.01162e-05
7.42302e-06
1.18823e-05
2.19267e-06
1.00933e-05
5.96703e-06
1.12529e-05
8.12224e-06
9.88003e-06
1.16507e-05
4.40681e-06
2.10068e-06
2.30001e-06
8.42151e-06
9.5294e-06
4.4552e-06
1.12693e-05
1.13315e-05
4.45175e-06
6.27036e-06
5.44269e-06
2.39119e-06
4.13154e-06
1.11094e-05
1.00897e-05
5.39116e-06
1.18807e-05
6.54012e-06
9.12115e-06
1.18466e-05
2.90201e-06
8.80731e-06
8.36819e-06
9.72672e-06
1.1875e-05
8.73074e-06
9.15185e-06
1.16403e-05
8.23033e-06
1.09414e-06
1.15762e-05
1.1187e-05
1.03135e-05
1.16247e-05
7.92467e-06
4.9677e-06
5.23182e-06
1.16015e-05
7.65624e-06
1.00965e-05
1.13762e-05
7.87026e-06
1.20316e-05
6.96054e-06
4.25269e-06
9.90087e-06
7.93448e-06
3.78676e-06
1.13093e-05
7.52149e-06
7.7203e-06
7.26078e-07
1.12468e-05
4.25696e-06
9.17876e-06
9.88663e-06
9.02171e-06
6.83934e-06
8.39644e-06
3.33607e-06
1.14206e-05
4.3852e-06
7.12133e-06
7.41043e-06
9.34641e-06
9.86701e-06
4.12954e-06
2.58773e-06
1.19498e-05
5.89567e-06
9.11539e-06
9.51787e-06
4.72624e-06
7.07554e-06
1.1087e-05
1.13076e-05
8.57548e-06
1.17954e-05
6.70527e-06
7.88329e-06
8.32101e-06
9.99842e-06
7.81824e-06
1.13956e-05
1.14129e-05
5.15346e-06
8.92797e-06
1.19563e-05
9.95772e-06
1.89674e-06
2.09392e-06
6.4579e-06
9.88403e-06
9.60383e-06
1.1344e-05
1.17839e-05
8.85322e-06
1.0609e-05
3.96699e-06
1.1942e-05
2.78032e-06
9.75399e-06
7.14501e-07
5.69538e-06
1.15305e-05
1.98592e-06
1.29297e-06
9.099e-06
8.54693e-06
2.29075e-06
4.321e-06
9.97966e-07
4.11071e-06
1.06432e-05
9.76482e-06
1.02965e-05
1.21117e-05
4.07123e-06
9.67204e-06
2.97236e-06
1.18787e-05
1.11143e-05
1.04793e-05
9.82573e-06
7.48072e-06
1.08724e-05
1.18305e-05
1.18769e-05
4.32308e-06
7.9229e-06
9.52428e-06
3.16168e-06
1.18771e-05
1.18727e-05
8.97398e-06
7.4822e-06
9.43189e-06
7.8878e-06
1.1233e-05
9.34539e-06
8.0155e-06
9.22866e-06
2.65922e-06
2.18999e-06
7.92077e-06
4.41793e-06
5.9252e-06
5.91068e-06
7.1599e-06
4.6252e-06
1.16742e-05
5.71393e-06
5.33478e-06
6.16111e-06
4.15124e-06
4.13735e-06
1.1423e-05
8.98643e-06
3.4413e-06
1.75393e-06
1.1218e-05
5.28813e-06
5.2865e-06
1.12303e-05
5.34865e-06
1.16925e-05
1.10742e-05
1.15727e-05
1.13557e-05
3.35124e-06
3.53711e-06
6.91897e-06
7.82393e-06
6.25905e-06
9.62328e-06
1.12334e-05
7.52664e-06
8.05492e-06
7.21392e-06
9.65115e-06
1.06192e-05
5.18306e-06
1.10966e-05
7.66097e-06
1.15429e-05
6.07337e-06
1.18763e-05
3.27217e-06
8.10151e-06
1.09379e-05
8.29773e-06
1.16268e-05
1.10156e-05
9.02109e-06
6.27994e-07
9.74228e-08
1.00137e-05
7.23483e-06
1.10869e-05
3.34488e-06
8.93208e-06
3.87616e-06
8.044e-07
8.81967e-06
8.69706e-06
7.0277e-06
1.18758e-05
4.43638e-06
1.08383e-05
7.39575e-06
1.15008e-05
9.92571e-06
1.06741e-05
1.13694e-05
5.48837e-06
3.00096e-06
9.34064e-06
1.16477e-05
9.75776e-06
1.08746e-05
3.72672e-06
9.08504e-06
2.59532e-06
1.16586e-05
9.29139e-06
3.94929e-06
1.18773e-05
8.52754e-06
8.9662e-06
8.73351e-06
8.77409e-06
9.86637e-06
2.97923e-06
4.29063e-06
9.09445e-07
2.48895e-06
8.05908e-06
7.63918e-06
7.57748e-06
6.94951e-06
1.16491e-05
1.16057e-05
6.11926e-06
7.39592e-06
3.98365e-06
1.03014e-06
1.13049e-05
1.03317e-05
3.8248e-06
1.01781e-05
4.86094e-07
1.18429e-05
3.24738e-06
1.19391e-05
8.99883e-06
8.25036e-06
7.40572e-06
1.00987e-05
1.73139e-06
1.1288e-05
9.02958e-06
1.12232e-05
1.08141e-05
9.91504e-06
8.61864e-06
9.47288e-06
9.28209e-06
1.08813e-05
1.31647e-06
5.1255e-06
4.43483e-06
8.4605e-06
7.20268e-06
9.15968e-06
7.20321e-06
3.29622e-06
1.68447e-06
4.76969e-06
4.07732e-06
8.80759e-06
2.92358e-06
7.5398e-06
7.56491e-06
2.02977e-06
3.72303e-06
2.55587e-06
3.36848e-06
3.0148e-06
8.01131e-06
1.18031e-05
4.59477e-06
7.68138e-06
4.54211e-06
8.20889e-06
4.2449e-06
9.30786e-06
7.41323e-06
7.14152e-06
1.13818e-05
6.74454e-06
1.18956e-05
7.17388e-06
8.02952e-06
1.17212e-05
6.94518e-06
8.74349e-06
7.3358e-06
9.69796e-06
7.30453e-06
1.18631e-05
4.17744e-06
4.15948e-06
6.64739e-06
2.44458e-06
-1.80589e-08
8.73306e-06
3.54797e-06
1.18778e-05
4.79122e-06
9.72614e-06
8.91542e-06
5.49172e-06
9.70048e-06
4.36205e-07
1.04834e-05
1.15844e-05
4.18751e-06
1.14484e-05
4.48103e-06
4.47072e-06
7.83666e-07
4.43135e-06
4.42405e-06
7.35993e-06
4.80761e-06
5.00816e-06
5.4928e-06
7.54322e-06
9.01166e-06
3.68222e-06
8.09355e-06
8.81285e-06
6.84629e-06
6.83668e-06
6.78895e-06
6.77655e-06
1.37402e-06
1.15247e-05
1.02699e-05
1.08629e-05
2.68302e-06
9.52694e-06
8.63053e-06
1.019e-05
4.58335e-06
1.17013e-05
6.48332e-06
7.62036e-06
2.19939e-06
8.71054e-06
8.90138e-06
5.54574e-06
5.53327e-06
1.15254e-05
9.33788e-06
8.44961e-06
1.17046e-05
1.1918e-05
1.1596e-05
9.43596e-06
7.52571e-06
2.08915e-06
2.87521e-06
1.19398e-05
1.15473e-05
8.61832e-06
9.32394e-06
8.02771e-06
1.06695e-05
5.15287e-06
6.37635e-06
7.89505e-06
1.1183e-05
3.92206e-06
3.4988e-07
7.41241e-06
8.6116e-06
4.90957e-06
5.7992e-06
1.09557e-05
3.08207e-06
1.18207e-05
6.84686e-06
9.82901e-06
9.54646e-06
9.43221e-06
4.00564e-06
1.16794e-05
9.32906e-06
4.0814e-06
4.51615e-06
1.13012e-05
3.69681e-06
1.11175e-06
9.13207e-06
2.29498e-06
2.80782e-06
3.3353e-06
1.64235e-06
3.87329e-06
5.86285e-06
5.85627e-06
1.01025e-05
8.91183e-06
5.70057e-06
9.8159e-07
9.33082e-06
9.53039e-06
7.66686e-06
1.1836e-05
1.10997e-05
6.62991e-06
7.16023e-06
3.06591e-06
1.20547e-06
5.86931e-06
4.90044e-06
4.89859e-06
1.14228e-05
5.19362e-06
1.18113e-05
2.39895e-06
5.12687e-06
8.50962e-06
1.99534e-06
2.5587e-06
3.11322e-06
3.66401e-06
4.20926e-06
8.73765e-06
7.63474e-06
8.19052e-06
7.12815e-06
6.56404e-06
3.65836e-06
4.19992e-06
7.12641e-06
7.48985e-06
4.45157e-06
4.41295e-06
5.39193e-06
6.89253e-06
1.08868e-05
1.181e-05
5.99053e-06
1.03277e-05
6.2001e-06
5.85301e-06
1.14995e-05
4.68069e-06
5.52526e-06
7.51845e-06
5.66812e-07
7.08108e-06
8.26292e-06
1.09058e-05
9.2385e-06
3.36093e-06
8.83063e-07
1.12788e-05
1.01955e-05
1.16681e-05
9.5313e-06
4.37618e-06
9.26786e-06
5.51769e-06
1.08619e-05
1.19265e-05
9.41484e-06
9.86722e-06
1.55697e-06
4.41504e-06
7.37118e-06
6.11032e-06
6.12657e-06
8.1109e-06
2.45729e-06
6.05514e-06
6.08125e-06
2.06818e-06
1.12184e-05
3.8397e-06
1.13574e-05
7.7821e-06
1.13677e-05
3.25606e-06
6.71982e-06
8.95615e-06
6.86817e-06
6.49107e-06
4.14906e-06
4.16069e-06
9.13872e-06
9.41269e-06
1.18608e-05
1.18722e-05
1.04129e-05
1.16325e-05
1.18791e-05
7.59855e-06
9.7339e-06
5.70433e-06
1.18799e-05
8.0798e-06
1.13924e-05
4.36248e-06
8.75807e-06
1.07384e-05
7.33235e-06
1.07611e-05
6.76822e-06
8.88645e-06
8.70982e-06
9.20532e-06
6.00041e-06
9.2316e-06
1.14216e-05
5.50691e-06
5.49688e-06
4.21662e-06
1.99385e-06
3.67713e-06
3.14337e-06
2.60761e-06
1.43507e-06
1.11626e-05
5.29203e-06
6.496e-06
9.81405e-06
6.76814e-06
3.89689e-06
9.89602e-06
1.1913e-05
7.32726e-06
3.63132e-06
1.18748e-05
8.00293e-06
9.46944e-06
7.74258e-07
9.09605e-06
1.18528e-05
1.13927e-05
3.44492e-06
5.67374e-06
5.67028e-06
5.99167e-06
4.05616e-06
1.82486e-06
6.66205e-06
5.90926e-06
7.73922e-06
1.03501e-05
9.83038e-06
6.19892e-06
7.32022e-06
5.97856e-06
1.2779e-06
3.51286e-06
2.98123e-06
2.46382e-06
7.10265e-06
9.50477e-06
9.14819e-06
7.87014e-06
1.14655e-05
1.09704e-05
2.59601e-06
1.16861e-05
1.18823e-05
7.00187e-06
3.76359e-06
4.95588e-06
6.04402e-06
6.33135e-06
9.49609e-06
3.18061e-06
8.21112e-06
1.25842e-06
9.50732e-06
9.13696e-07
2.83941e-06
9.97224e-06
4.5834e-06
2.87638e-06
1.14446e-05
8.1401e-06
6.53922e-06
1.19615e-06
3.86735e-07
6.70531e-06
2.85646e-06
8.96232e-06
1.18793e-05
9.53417e-06
5.78976e-06
8.96662e-06
1.09382e-05
8.19859e-06
8.36586e-06
1.18688e-06
4.12284e-06
7.57099e-06
6.23937e-06
6.2278e-06
1.91667e-06
7.09906e-06
1.11137e-05
1.39985e-06
4.26084e-06
7.53281e-06
8.27652e-06
2.29935e-06
6.28372e-06
6.29932e-06
6.54525e-06
2.67419e-06
7.57113e-06
8.7758e-06
7.22526e-06
9.12135e-06
6.962e-06
1.18087e-05
1.13505e-05
5.95236e-06
7.71166e-06
8.11169e-06
1.39675e-06
8.65332e-06
1.07262e-05
8.30035e-06
5.80661e-06
8.30141e-06
1.19021e-05
6.91034e-06
9.13197e-07
6.16021e-06
8.42456e-06
7.15026e-06
6.58302e-06
1.10051e-05
6.36109e-06
8.81464e-06
9.34321e-06
1.1496e-05
5.92216e-06
9.21772e-06
1.07625e-05
8.51224e-06
8.25071e-06
1.12713e-05
9.15744e-06
1.00088e-05
4.11488e-06
1.01063e-05
6.14959e-06
8.89185e-06
4.13694e-06
9.96414e-06
1.70165e-06
1.15801e-05
4.2615e-06
1.13265e-05
7.79563e-07
1.16668e-05
4.61182e-06
6.63907e-06
8.54602e-06
4.78272e-06
1.1642e-05
1.18125e-05
1.05472e-05
1.06074e-05
7.38246e-06
1.42594e-06
7.28334e-06
4.94619e-06
7.78272e-06
7.9672e-06
4.37208e-06
5.75591e-06
7.64238e-06
7.64458e-06
9.86643e-06
7.21787e-06
1.18515e-05
1.14802e-05
1.233e-06
4.08356e-06
7.71937e-06
8.45394e-06
2.11916e-06
6.46411e-06
6.48105e-06
6.41221e-06
6.42477e-06
1.7342e-06
9.03316e-06
1.18839e-05
1.17026e-05
4.66658e-06
8.44731e-06
1.18726e-05
1.15844e-05
1.18759e-05
9.96097e-06
4.07243e-06
8.35579e-07
8.57371e-07
7.27744e-06
7.48358e-07
7.65702e-07
3.51111e-06
8.46022e-07
8.09323e-06
1.05486e-06
1.88075e-06
7.55804e-06
4.76142e-06
6.24596e-06
1.42279e-06
2.34928e-06
2.32476e-06
1.44931e-06
2.3673e-06
8.295e-06
6.01502e-06
1.37872e-06
6.26885e-06
4.22966e-06
4.76648e-06
2.27966e-06
6.316e-06
6.29771e-06
5.5343e-06
5.4163e-06
1.17124e-05
1.61547e-06
1.63463e-06
2.21558e-06
1.80263e-06
1.81846e-06
4.42056e-06
6.54582e-06
9.44532e-06
9.3763e-06
3.19518e-06
6.33748e-06
2.19397e-06
8.56976e-06
1.24057e-06
7.96088e-06
1.02363e-06
9.2338e-06
9.60705e-06
1.14491e-05
1.18522e-05
5.08331e-06
1.72497e-06
9.31535e-06
7.49899e-06
1.16088e-05
8.00279e-06
3.0285e-06
8.52115e-06
6.84059e-06
1.11274e-05
9.34474e-07
1.0447e-05
5.652e-06
4.86032e-06
1.01285e-05
9.11111e-06
4.17084e-06
5.32852e-06
1.14251e-05
8.91566e-06
3.82369e-06
1.19784e-05
5.15967e-06
5.14858e-06
1.12587e-05
2.53118e-06
2.54606e-06
2.5114e-06
8.15058e-06
1.05568e-05
5.64478e-06
8.80882e-06
3.11127e-06
7.00936e-06
9.40457e-06
7.77268e-06
9.04229e-06
1.17797e-05
1.11197e-05
8.30113e-06
7.14118e-06
9.61112e-06
3.07596e-06
9.27522e-06
1.76528e-06
1.07534e-05
3.28157e-06
9.10016e-06
6.94581e-06
3.83447e-06
1.41403e-06
1.10131e-05
2.56308e-06
1.19652e-05
9.37982e-06
1.09718e-06
9.35914e-06
1.18789e-05
3.84633e-06
3.29705e-06
2.74435e-06
2.18481e-06
6.36792e-06
4.39174e-06
4.39344e-06
6.95694e-06
6.36425e-06
1.18846e-05
1.19321e-05
4.15345e-06
1.10545e-05
6.85732e-06
1.14218e-05
2.38446e-06
2.50409e-06
1.06253e-06
9.55001e-06
4.29264e-06
4.29292e-06
1.05362e-05
8.88765e-06
3.49005e-06
1.61648e-06
1.58151e-06
8.97925e-06
8.40128e-07
8.1831e-07
1.15839e-05
6.93492e-06
8.69084e-06
9.95406e-06
6.15161e-06
1.588e-06
2.48831e-06
7.92226e-06
2.52894e-06
2.49705e-06
1.03299e-05
1.11565e-05
9.63874e-06
7.93927e-06
9.90484e-06
1.12224e-05
1.14778e-05
3.9045e-06
1.61347e-06
6.94294e-06
1.03688e-06
1.06878e-06
1.98521e-06
2.00359e-06
1.94857e-06
9.33154e-06
8.97791e-06
7.7048e-06
1.14867e-05
3.04718e-06
4.95542e-06
1.00493e-05
1.18594e-05
6.90839e-06
4.97541e-06
1.55178e-07
6.07253e-06
8.51606e-06
1.15999e-05
5.45367e-06
1.18878e-05
8.91116e-06
9.68042e-06
6.28288e-06
1.18503e-05
5.00862e-06
4.79216e-06
5.20388e-06
1.16014e-05
7.74054e-06
3.62809e-06
2.49616e-06
5.67947e-06
5.09407e-06
5.09322e-06
8.60489e-06
7.81611e-06
1.16673e-05
6.84964e-06
1.09828e-06
9.93127e-06
2.35351e-06
1.03094e-05
9.1658e-06
7.83641e-06
1.18695e-05
6.18493e-06
1.1876e-05
3.0147e-06
1.80105e-06
1.76811e-06
4.86503e-06
4.17857e-06
7.79929e-06
5.65098e-06
8.7827e-07
1.03006e-05
7.9139e-06
1.12679e-05
6.41504e-06
8.12722e-06
1.19923e-05
4.94152e-06
4.94691e-06
2.09986e-06
8.33348e-06
1.14606e-05
5.75707e-06
3.19726e-06
1.99418e-06
1.94969e-06
1.98527e-06
1.08274e-05
1.01164e-06
1.04331e-06
4.94645e-06
1.18104e-05
8.63154e-06
1.11025e-05
1.18799e-05
7.22709e-06
8.69836e-06
1.07435e-05
1.50688e-06
1.13613e-06
1.51076e-06
1.87091e-06
2.72662e-06
3.09238e-06
7.40954e-06
3.46557e-06
9.023e-06
2.71011e-06
2.72102e-06
3.85097e-06
2.69494e-06
7.05121e-06
5.65319e-06
8.65958e-06
5.28553e-06
6.68934e-06
7.39675e-06
8.66513e-06
8.30042e-06
6.66919e-06
7.93069e-06
7.03613e-06
6.62541e-06
4.92481e-06
6.63569e-06
5.16882e-06
5.38696e-06
5.37576e-06
3.17319e-06
3.53001e-06
3.88571e-06
4.24196e-06
4.60722e-06
5.00536e-06
2.84442e-06
9.15455e-06
9.03235e-06
9.87914e-06
8.54135e-06
3.75938e-07
3.68445e-07
7.11359e-06
5.83496e-06
5.35101e-06
5.22157e-06
1.69428e-06
6.43598e-06
6.45448e-06
6.48369e-06
6.50372e-06
4.04245e-06
7.74453e-06
8.47895e-06
1.1899e-06
1.1679e-05
1.91872e-06
4.27218e-06
2.6761e-06
1.13331e-05
1.18113e-05
2.70514e-06
1.04033e-05
2.67114e-06
8.89984e-06
3.88464e-06
7.90708e-06
8.63564e-06
1.93484e-06
6.65263e-06
6.66517e-06
6.60217e-06
6.60766e-06
1.55074e-06
9.6325e-06
8.64496e-06
1.62237e-06
1.1347e-05
7.54499e-06
1.12982e-05
1.01314e-05
4.77096e-07
1.1004e-05
1.18685e-05
8.84091e-06
2.29931e-06
6.90037e-06
4.7644e-06
1.13298e-05
9.11335e-06
5.94039e-06
1.05644e-05
6.35371e-06
1.15382e-05
1.18672e-05
1.13577e-05
1.04238e-05
9.4488e-06
1.58229e-06
8.26569e-06
2.88491e-06
8.84106e-06
6.052e-06
9.56417e-06
1.13495e-05
1.11759e-05
1.1213e-05
9.60408e-06
1.18245e-05
1.93019e-06
2.82952e-06
1.16367e-05
9.62466e-06
8.48183e-06
1.18505e-05
1.15498e-05
1.16665e-05
2.27163e-06
1.11667e-05
1.09746e-05
7.3867e-06
9.21281e-06
8.51773e-06
4.61654e-06
4.81262e-06
5.30697e-06
3.48539e-06
8.27876e-06
8.99086e-06
7.02081e-06
7.02683e-06
6.97565e-06
1.2002e-06
4.25498e-06
4.94616e-06
8.6399e-06
3.10899e-06
7.38489e-06
7.37673e-06
3.89964e-06
4.59322e-06
7.74468e-06
2.73882e-06
3.54481e-06
2.372e-06
3.19092e-06
2.83652e-06
1.86037e-06
5.73518e-06
5.72155e-06
1.50301e-06
1.01391e-05
5.14521e-06
9.69549e-06
1.12702e-05
3.41937e-06
1.16099e-05
1.18408e-05
2.17543e-06
1.1869e-05
1.13129e-05
1.13969e-05
8.51232e-06
2.04824e-06
1.18723e-05
1.18825e-05
9.1243e-06
9.19745e-06
1.14168e-05
1.18814e-05
6.4155e-06
4.35556e-06
1.18238e-05
1.17281e-05
8.17563e-06
1.15706e-06
1.13516e-05
4.36356e-06
3.82855e-06
3.28197e-06
2.72712e-06
1.18126e-05
2.16095e-06
3.07276e-06
9.77343e-06
1.02504e-05
1.18706e-05
1.1802e-05
5.29441e-06
5.66918e-06
1.17012e-05
5.35728e-06
5.34596e-06
9.5652e-06
6.25808e-06
7.73501e-06
1.19609e-05
1.11969e-05
6.22802e-07
7.14324e-06
1.77821e-06
7.90228e-06
4.72343e-06
1.15284e-05
8.72196e-06
2.5098e-06
5.33975e-06
7.3655e-06
8.85702e-06
2.73257e-06
8.81306e-06
1.18775e-05
9.12266e-06
3.23186e-06
1.18698e-05
1.18721e-05
1.12457e-06
1.18827e-05
7.72546e-07
1.12259e-05
5.91883e-06
9.6626e-06
4.43568e-06
1.1366e-05
3.79768e-07
6.23689e-07
8.31475e-06
7.00339e-07
5.41677e-07
6.19679e-06
8.99588e-06
3.61333e-06
7.37181e-07
5.86917e-06
1.1869e-05
2.4821e-06
3.97804e-06
1.18518e-05
7.07831e-07
1.13722e-05
2.89445e-06
8.47335e-06
4.02467e-06
7.46326e-06
5.97804e-06
7.54863e-06
1.06577e-05
1.18805e-05
7.90913e-06
1.06015e-05
9.04448e-06
4.12624e-06
1.12793e-05
1.1573e-05
1.89565e-06
9.21928e-06
1.18852e-05
1.18787e-05
8.42529e-06
7.81068e-06
1.15543e-05
4.96211e-06
4.9708e-06
1.18103e-05
4.68005e-07
9.69978e-06
8.66448e-06
2.90962e-06
6.10873e-06
1.01919e-05
3.65567e-06
6.94063e-06
8.79253e-06
1.19353e-05
5.96373e-07
8.08921e-06
7.3473e-06
9.6789e-06
6.6788e-06
7.3374e-06
4.98362e-06
1.07884e-05
1.18666e-05
9.04375e-06
9.69505e-06
1.18781e-05
5.57065e-06
5.55845e-06
2.99395e-06
2.54366e-06
7.57534e-06
4.7456e-06
6.8144e-06
4.98035e-06
4.2137e-06
8.28982e-06
1.10538e-05
9.78516e-06
4.07596e-06
1.1891e-05
5.57156e-06
7.45497e-06
1.10843e-05
6.36509e-06
8.61537e-06
6.73099e-06
1.19609e-05
1.17657e-05
1.06438e-05
1.13263e-05
7.57953e-06
1.17986e-05
8.21548e-06
1.13544e-05
1.14837e-05
1.14547e-05
3.10568e-06
5.14448e-06
5.3152e-06
9.76148e-06
1.09329e-05
6.767e-06
1.15208e-05
1.1894e-05
9.45845e-06
8.60077e-06
7.71894e-06
5.85783e-06
1.12724e-06
7.00148e-06
1.13908e-05
1.18824e-05
8.84889e-06
1.04015e-05
5.07081e-06
1.13053e-05
8.34461e-06
4.56148e-06
6.79968e-06
3.96578e-06
1.19178e-05
4.99248e-06
1.32147e-06
5.59592e-06
7.87948e-06
8.10557e-06
6.66032e-06
5.36879e-06
1.11412e-05
1.18754e-05
1.1314e-05
8.44817e-06
6.29782e-06
9.41781e-06
8.11315e-06
1.02479e-05
1.18745e-05
9.59348e-06
7.88132e-06
1.16345e-05
1.13916e-05
7.75868e-06
8.85486e-06
7.59397e-06
9.21347e-06
6.83105e-06
2.89404e-06
1.23998e-06
1.2007e-06
2.10966e-06
2.16849e-06
2.1346e-06
5.18496e-06
5.19501e-06
5.95507e-06
5.72449e-06
7.44368e-06
8.37717e-06
9.92209e-06
1.06871e-06
1.52986e-06
4.79362e-08
1.16975e-05
5.53158e-06
3.00035e-07
1.14594e-05
1.13925e-05
9.11931e-06
4.70722e-06
4.69863e-06
5.78504e-06
1.0579e-05
3.85344e-06
5.91757e-06
7.92223e-06
9.60291e-06
5.76463e-06
8.72309e-06
3.384e-06
1.14364e-05
9.43825e-06
1.18434e-05
1.18953e-05
9.08299e-07
1.13057e-05
5.25544e-06
5.59089e-06
1.18822e-05
7.02882e-06
1.96477e-06
1.13888e-05
9.77614e-07
4.82349e-06
8.50587e-06
7.73829e-06
8.93802e-06
3.26432e-06
6.5686e-07
1.86013e-06
8.98469e-06
7.96052e-06
1.17087e-05
1.18644e-05
7.03354e-06
8.40555e-06
1.29298e-06
5.73272e-06
5.31734e-06
9.42086e-06
1.173e-05
1.19637e-05
9.99562e-06
7.40395e-07
1.03684e-05
4.6486e-06
4.73589e-06
7.21237e-06
6.23527e-06
4.5363e-06
6.72307e-06
9.19381e-06
1.01976e-05
4.7054e-06
4.7132e-06
4.53199e-06
4.00782e-06
3.46544e-06
2.91335e-06
1.1368e-05
2.35099e-06
8.79238e-06
5.41682e-06
1.1884e-05
1.18464e-05
1.12794e-05
8.73869e-06
9.74753e-06
7.92493e-06
9.97055e-06
7.96048e-06
1.05628e-05
6.44552e-06
1.17238e-05
7.18974e-06
5.10111e-06
1.19808e-05
7.55437e-06
9.01576e-06
2.43045e-06
1.80837e-06
2.96601e-06
3.49859e-06
5.6808e-06
4.03764e-06
5.69941e-06
1.25139e-06
1.13597e-05
1.16953e-05
1.04392e-05
1.02407e-05
5.19679e-07
5.28266e-07
6.08882e-06
4.7857e-06
8.08265e-06
1.13694e-05
1.11036e-05
1.18827e-05
1.18688e-05
1.18449e-05
1.01581e-05
1.13578e-05
1.12265e-05
2.5396e-06
1.18401e-05
6.50101e-06
8.46452e-06
1.03713e-05
1.18562e-05
1.04165e-05
2.73064e-06
9.09144e-06
3.85596e-06
1.139e-05
9.76082e-06
9.28162e-06
1.1263e-05
1.14407e-05
9.42835e-07
1.1779e-05
1.32551e-06
1.69312e-06
3.3509e-06
3.70727e-06
2.90807e-06
4.06246e-06
8.48403e-06
7.21795e-06
7.23096e-06
3.27658e-06
5.10374e-06
4.42154e-06
6.85411e-06
6.87345e-06
8.11827e-06
8.84232e-06
3.65648e-06
5.46855e-06
4.80021e-06
1.15295e-05
2.6172e-06
9.24948e-06
1.09647e-05
1.14698e-05
5.50625e-06
1.00181e-05
3.91505e-06
7.79049e-06
1.19449e-05
2.65203e-06
1.13416e-05
1.18845e-05
1.01282e-05
7.32855e-06
1.14027e-05
7.91657e-06
1.39674e-06
1.10651e-05
9.35192e-06
9.42474e-06
6.06325e-06
8.65649e-06
2.88949e-06
3.81559e-06
9.48846e-06
1.19027e-05
4.5682e-06
1.1749e-05
4.56147e-06
1.18967e-05
1.1108e-05
1.18759e-05
7.76777e-06
1.13177e-05
6.24401e-06
9.46981e-07
3.17819e-06
1.12243e-05
5.52587e-06
1.1888e-05
5.90218e-07
1.31174e-06
8.88103e-06
9.69473e-06
8.28228e-06
1.14916e-05
8.66021e-06
6.06355e-06
4.70305e-06
6.99432e-07
4.70171e-06
2.36247e-06
6.99869e-06
5.12491e-06
4.56929e-06
7.75034e-06
1.91926e-06
5.1264e-06
4.79149e-06
5.7527e-06
5.7393e-06
2.81593e-06
5.32919e-06
8.3575e-06
2.367e-06
2.39189e-06
1.07638e-05
5.66504e-06
1.15847e-05
1.0952e-05
8.27892e-07
8.49345e-07
7.00841e-06
1.14462e-05
2.89134e-06
2.82176e-06
1.63736e-06
6.32591e-06
6.03494e-06
1.13557e-05
1.13708e-05
1.09243e-05
9.83284e-06
7.37434e-06
1.18783e-05
1.19752e-05
1.01273e-05
7.07646e-06
7.42647e-06
1.18856e-05
5.25402e-06
4.76195e-06
9.41569e-06
1.19201e-05
1.05975e-05
1.0432e-05
1.6682e-06
2.85168e-06
5.07664e-06
9.61712e-06
1.16155e-05
3.52557e-06
1.39181e-06
2.54164e-06
1.18799e-05
1.1884e-05
1.18932e-05
9.36992e-06
1.1777e-05
9.7511e-06
3.23967e-06
1.18489e-05
1.11731e-05
4.53018e-06
1.0308e-05
8.91252e-06
7.72224e-06
4.28973e-06
1.19223e-05
1.18335e-05
1.18067e-05
1.18839e-05
1.00057e-05
1.0408e-05
1.12854e-05
6.36755e-06
4.38851e-06
2.18382e-06
1.19502e-05
2.74463e-06
3.29145e-06
3.84098e-06
4.38923e-06
1.11978e-05
1.14526e-05
7.25164e-06
1.20256e-05
1.81026e-06
1.15155e-05
2.68004e-06
9.03444e-06
6.38361e-06
1.16009e-05
4.90511e-06
9.2689e-07
9.57989e-07
1.02213e-05
9.12337e-06
1.79038e-06
1.81636e-06
1.13503e-05
2.68694e-06
5.20802e-06
1.18411e-05
2.72016e-06
7.8381e-06
8.37812e-06
9.88131e-06
1.1312e-05
2.70562e-06
1.18023e-05
6.67277e-06
6.74125e-06
4.01562e-06
3.05936e-06
7.40156e-06
4.99834e-06
1.19186e-05
5.03471e-06
5.02362e-06
8.53532e-06
9.01509e-06
1.18802e-05
1.77149e-06
9.9858e-06
6.04581e-07
6.83045e-07
9.27822e-06
3.00048e-06
1.19417e-05
2.58522e-06
1.00906e-06
1.57918e-06
1.1365e-05
1.18648e-05
1.0577e-05
1.10938e-06
1.07934e-06
1.96319e-06
1.99441e-06
1.98908e-06
6.34908e-06
4.04781e-06
4.04341e-06
1.13641e-05
1.07583e-05
1.1524e-05
3.63321e-06
1.18209e-05
1.6499e-06
1.60418e-06
8.05814e-06
1.13463e-05
4.20321e-06
1.19576e-05
1.19239e-05
1.14294e-05
9.97702e-06
2.83322e-06
1.18673e-05
3.5705e-06
1.80787e-06
5.79818e-06
1.66484e-06
6.45095e-06
6.43173e-06
2.10576e-06
8.47219e-06
7.74151e-06
4.03273e-06
6.48161e-06
6.4997e-06
1.19866e-06
1.18133e-05
7.41166e-06
9.31939e-06
1.16284e-05
1.08856e-05
2.51701e-06
1.18308e-05
1.15273e-05
9.29584e-06
2.54295e-06
6.21598e-06
4.54063e-06
1.15539e-05
3.33563e-06
1.04511e-05
2.53501e-06
2.37367e-06
2.92713e-06
3.47404e-06
4.0262e-06
4.54603e-06
1.11922e-05
9.40458e-06
9.90993e-06
5.60091e-06
8.46263e-06
3.34279e-06
1.11964e-05
8.52748e-06
1.06453e-05
1.14529e-05
1.18847e-05
1.07851e-05
7.55263e-06
1.15972e-05
1.18162e-05
1.04679e-05
1.14074e-05
6.75659e-06
4.01459e-06
9.65643e-06
1.14024e-05
1.19553e-05
6.11239e-06
5.64633e-06
8.0994e-06
1.15647e-05
1.11893e-05
7.73407e-06
8.04889e-06
9.55186e-06
1.06347e-05
7.39046e-06
6.54171e-06
1.18871e-05
1.14772e-05
7.99146e-06
7.0103e-06
5.12975e-06
5.14028e-06
1.14528e-05
2.29444e-06
1.05321e-05
4.027e-06
3.48047e-06
2.92859e-06
2.37214e-06
4.73987e-06
1.18468e-05
2.09063e-06
7.44792e-06
1.18829e-05
1.17338e-05
1.46007e-06
7.42389e-06
8.45683e-07
1.01823e-05
6.12824e-06
1.04914e-05
4.91507e-07
4.82058e-07
1.21152e-05
5.35713e-06
1.19713e-05
1.1805e-05
1.10719e-05
4.62211e-06
9.63697e-07
9.50586e-07
1.14399e-05
1.1885e-05
1.19086e-05
9.35711e-06
5.83028e-06
1.17864e-05
1.27062e-06
9.68944e-06
1.1869e-05
6.19348e-06
4.57868e-06
9.67822e-06
4.57427e-06
1.12415e-05
1.18405e-05
9.77766e-06
7.56428e-06
1.14278e-05
1.01303e-05
1.1488e-05
1.18855e-05
1.1333e-05
6.13199e-07
1.15846e-05
1.105e-05
1.18805e-05
1.16238e-05
9.33514e-06
1.03645e-05
1.18662e-05
1.18535e-05
1.18239e-05
5.4986e-06
1.20573e-05
1.16679e-05
6.77399e-06
1.17537e-05
1.00607e-05
7.20484e-06
2.06533e-06
1.02346e-05
1.04268e-05
7.92337e-06
2.4499e-06
8.4712e-06
5.72489e-06
1.11999e-05
9.10691e-07
1.13583e-05
1.15547e-05
2.07824e-07
1.18935e-05
1.26232e-06
1.23007e-06
2.13721e-06
2.1864e-06
2.16783e-06
1.0229e-05
1.11814e-05
1.80439e-06
1.08145e-06
8.03764e-06
5.87549e-06
5.85661e-06
3.86142e-06
1.62164e-06
3.3259e-06
2.79655e-06
2.23935e-06
3.79516e-07
7.80082e-06
6.25287e-06
6.22006e-06
1.87002e-06
1.37436e-06
4.24096e-06
7.55189e-06
8.26888e-06
2.29294e-06
6.27339e-06
6.29041e-06
9.97525e-06
7.11443e-06
1.11097e-05
9.41096e-06
1.1881e-05
1.18259e-05
1.18538e-05
3.89261e-07
5.3429e-06
1.18678e-05
1.18418e-05
1.16643e-05
4.98835e-06
4.97795e-06
1.0746e-05
7.36907e-07
9.69585e-06
1.02121e-05
8.01196e-06
6.52745e-06
6.24811e-06
1.25387e-06
3.50089e-06
2.97359e-06
2.42533e-06
1.18266e-05
1.00798e-05
5.68427e-06
5.68778e-06
4.04493e-06
1.82416e-06
1.03665e-05
1.17461e-05
3.4414e-06
5.56879e-06
1.12503e-05
1.19506e-05
4.59846e-06
9.60497e-06
1.72136e-06
1.1763e-05
1.19341e-05
1.12298e-05
1.1859e-05
2.68149e-07
1.18768e-05
1.14659e-05
2.87072e-06
9.26691e-06
6.60124e-06
4.16325e-06
1.60345e-06
1.50491e-06
1.18748e-05
2.48645e-06
2.53164e-06
1.18761e-05
1.18756e-05
3.21895e-06
2.87807e-06
1.32783e-06
1.18683e-05
7.29901e-06
1.18294e-05
5.21495e-06
2.20526e-06
1.13623e-05
2.53977e-06
3.09843e-06
3.64826e-06
4.1865e-06
1.18715e-05
1.18606e-05
1.18799e-05
6.56201e-06
3.93322e-06
1.00819e-05
1.02066e-05
1.09516e-05
1.18228e-05
1.11037e-05
2.48766e-06
1.18716e-05
9.86559e-06
1.12186e-05
6.10099e-07
6.17879e-07
1.07831e-05
1.18852e-05
1.13755e-05
6.57544e-06
4.00901e-06
8.71298e-06
1.00817e-05
7.07798e-06
4.45957e-06
1.17428e-05
9.95662e-06
1.14654e-05
1.17216e-05
2.78432e-06
8.21372e-06
2.68138e-06
9.02213e-07
5.45473e-06
1.11223e-05
1.96997e-06
2.70853e-06
1.2401e-06
1.28263e-06
7.20119e-06
1.18758e-05
2.16476e-06
2.18005e-06
2.12589e-06
7.62573e-06
1.13839e-05
1.18756e-05
1.12231e-05
1.1431e-05
1.18727e-05
6.61746e-06
6.59636e-06
8.58024e-06
6.58622e-06
1.18811e-05
7.90886e-06
1.64583e-06
6.54261e-06
4.02094e-06
1.95429e-06
7.87346e-06
1.18606e-05
1.16575e-05
1.93332e-06
1.94193e-06
6.29355e-06
8.82806e-06
9.41332e-06
1.18791e-05
1.1856e-05
1.77e-06
1.75752e-06
9.38343e-06
1.13497e-05
2.64438e-06
5.58654e-06
1.15516e-05
2.90782e-06
1.12522e-05
1.89976e-06
7.73425e-06
1.19126e-05
1.11515e-05
1.05468e-06
1.54817e-06
4.49631e-06
8.28008e-06
8.85308e-06
6.12887e-06
7.04015e-06
6.1602e-06
1.05554e-05
1.15528e-05
9.69694e-06
4.46963e-06
2.26702e-06
3.46174e-06
4.01192e-06
7.25615e-06
1.18796e-05
1.18976e-05
8.85889e-07
1.18464e-05
4.79285e-06
3.09327e-06
1.73404e-06
4.9861e-06
9.53606e-06
6.26131e-06
2.53186e-06
5.46291e-06
5.16309e-06
1.16121e-05
1.19501e-05
3.92177e-06
9.32018e-06
1.05728e-05
3.64541e-06
4.18408e-06
6.17176e-06
6.2327e-07
1.15299e-05
2.88439e-06
3.06531e-06
6.69377e-07
3.0363e-06
3.64845e-06
8.11471e-06
8.84481e-06
6.84826e-06
6.87434e-06
6.81416e-06
6.83211e-06
1.31075e-06
1.17823e-05
2.27243e-06
2.34762e-06
1.41871e-06
1.31851e-06
4.04023e-06
2.12588e-06
2.35231e-06
7.93904e-06
3.61833e-06
5.77142e-07
1.1753e-05
1.24397e-06
4.42904e-06
5.10251e-06
3.27099e-06
8.49019e-06
7.24169e-06
7.21517e-06
9.20801e-06
2.25638e-06
2.63733e-06
1.42838e-06
3.16294e-06
1.47937e-06
1.10928e-05
4.07247e-06
4.74606e-06
7.58696e-06
2.90979e-06
7.57425e-06
8.8533e-06
3.71518e-06
2.5496e-06
3.35505e-06
2.99282e-06
2.03019e-06
9.15451e-06
1.68313e-06
3.69308e-06
6.00091e-06
5.54093e-06
5.52925e-06
2.56775e-06
1.42748e-06
1.46991e-06
1.18731e-05
1.39186e-06
1.4295e-06
1.05135e-06
4.63596e-06
1.18746e-05
4.62982e-06
2.31676e-06
1.88623e-06
1.13173e-05
2.34978e-06
2.35512e-06
2.30004e-06
1.09723e-05
2.36177e-06
2.32788e-06
1.34057e-06
1.05113e-05
1.14055e-05
4.72958e-06
1.18983e-05
9.3479e-06
5.78846e-06
3.65476e-06
4.18754e-06
1.22036e-06
5.35678e-06
7.19965e-06
9.22213e-06
1.84157e-06
1.77227e-06
1.07308e-05
3.2345e-07
7.21051e-07
9.53636e-06
5.32309e-06
5.316e-06
9.55327e-06
1.18707e-05
2.14481e-06
6.51495e-06
6.53541e-06
4.07583e-06
7.03144e-06
9.44276e-06
1.69246e-06
6.45751e-06
6.3973e-06
1.18806e-05
1.04442e-06
9.6096e-06
5.72656e-06
7.31995e-06
7.6992e-06
8.49778e-06
5.073e-06
5.06958e-06
1.73484e-06
1.08696e-06
3.21368e-06
8.71179e-06
5.83512e-06
7.25917e-06
8.15039e-06
1.80953e-06
2.13001e-06
2.11008e-06
1.18628e-05
3.05496e-06
4.18788e-06
1.1811e-05
3.34127e-06
2.80885e-06
2.32382e-06
2.71949e-06
3.87279e-06
4.93619e-06
1.65262e-06
9.36832e-06
8.51992e-06
6.8347e-06
1.98012e-06
2.01214e-06
1.08205e-05
4.60819e-06
7.18912e-06
4.39058e-06
7.91542e-06
2.19233e-06
2.63733e-06
5.91462e-06
5.92801e-06
5.64728e-06
1.46033e-06
2.37596e-06
7.58429e-06
7.41121e-06
3.08403e-06
2.90042e-06
5.70024e-06
3.2522e-06
8.48209e-06
8.86559e-06
7.71587e-06
1.18794e-05
6.36453e-06
7.97103e-06
1.10741e-05
1.69306e-06
1.37957e-06
5.85236e-06
2.3375e-06
4.8293e-06
3.41979e-06
4.59915e-06
9.05229e-06
1.13304e-06
3.29081e-06
4.95671e-06
4.94587e-06
6.7736e-06
6.77074e-06
8.73496e-06
9.27432e-06
4.94546e-06
4.93535e-06
5.47292e-06
5.68926e-06
2.93152e-06
3.47202e-06
4.01517e-06
4.56832e-06
4.2593e-06
8.11097e-06
7.20238e-06
6.1855e-06
4.54631e-06
6.50413e-06
2.05071e-06
1.27475e-06
6.72666e-06
9.7537e-07
1.12155e-05
8.89987e-06
1.18709e-05
4.6003e-06
2.74103e-06
8.32678e-06
2.88446e-06
7.75231e-06
6.53183e-06
4.43506e-06
2.19894e-06
7.76872e-06
3.36383e-06
2.90986e-06
1.30655e-06
3.60799e-06
8.29672e-06
9.09467e-06
4.23534e-06
6.82392e-06
6.22137e-07
6.3739e-07
7.0083e-06
1.06789e-05
4.97663e-06
5.50323e-06
5.49908e-06
4.97074e-06
4.95978e-06
4.76989e-06
6.03197e-06
2.83169e-06
5.11614e-06
2.70146e-06
1.03211e-06
1.97907e-06
2.63827e-06
3.54293e-06
3.90214e-06
7.57245e-06
7.79368e-06
5.26789e-06
5.10246e-06
7.38089e-06
8.99069e-06
7.03877e-06
7.02919e-06
5.00895e-06
5.66831e-06
5.65423e-06
1.54101e-06
7.04378e-06
2.45331e-06
2.75154e-06
2.73294e-06
3.18418e-06
1.20284e-06
2.70672e-06
9.21471e-06
7.25015e-06
7.22126e-06
8.67339e-06
7.64104e-06
3.00354e-06
2.55435e-06
7.47302e-06
3.11072e-06
2.37641e-06
4.74985e-06
1.95703e-06
1.04987e-05
4.37041e-06
6.65914e-06
3.83813e-06
4.37169e-06
5.35376e-06
5.30444e-06
6.12122e-06
4.08148e-06
5.16597e-06
6.54103e-06
1.5569e-06
1.18753e-05