/*--------------------------------*- C++ -*----------------------------------*\
  =========                 |
  \\      /  F ield         | OpenFOAM: The Open Source CFD Toolbox
   \\    /   O peration     | Website:  https://openfoam.org
    \\  /    A nd           | Version:  8
     \\/     M anipulation  |
\*---------------------------------------------------------------------------*/
FoamFile
{
    version     2.0;
    format      ascii;
    class       volScalarField;
    location    "4.4";
    object      p;
}
// * * * * * * * * * * * * * * * * * * * * * * * * * * * * * * * * * * * * * //

dimensions      [0 2 -2 0 0 0 0];

internalField   nonuniform List<scalar> 
5490
(
6.03078e-06
6.4697e-06
5.10192e-06
6.14366e-06
9.5857e-07
1.08296e-05
1.12571e-05
1.12204e-05
4.26347e-06
1.11947e-05
4.74784e-06
4.57657e-06
3.68597e-06
4.25676e-06
4.13873e-06
1.12095e-05
1.126e-05
1.09221e-05
6.05086e-06
4.38777e-06
3.29012e-06
1.12575e-05
1.09681e-05
1.12573e-05
3.18138e-06
3.34538e-06
3.79945e-06
5.91928e-06
1.06134e-05
2.12921e-06
5.69127e-06
1.12463e-05
8.75189e-06
7.4826e-06
2.5813e-06
5.67274e-06
1.05361e-05
6.0356e-06
1.40075e-06
2.96085e-06
5.83614e-06
1.05656e-05
4.98418e-06
1.05989e-05
1.11931e-05
7.52359e-06
2.00775e-06
1.52143e-06
6.04865e-06
9.63312e-06
1.11763e-05
2.24708e-06
2.68979e-06
1.1724e-06
3.57311e-06
7.49064e-06
1.0158e-05
1.1461e-05
4.23865e-06
2.22632e-06
1.05911e-05
4.82473e-07
7.11285e-06
1.12314e-05
1.12583e-05
1.10846e-05
1.11902e-05
1.05056e-05
1.81314e-06
1.12053e-05
1.41931e-06
3.04197e-06
1.12012e-05
1.12351e-05
1.11604e-05
2.64967e-06
1.08641e-05
4.51365e-07
6.37711e-06
5.06687e-06
1.05809e-05
9.77227e-06
1.07525e-05
6.16545e-06
9.49542e-07
6.93976e-06
1.08992e-05
1.08462e-05
2.82151e-06
1.05173e-05
1.12151e-05
1.077e-05
1.23472e-06
1.12554e-05
5.84123e-06
1.12162e-05
4.4633e-06
1.0737e-05
1.05647e-05
3.54309e-06
4.38794e-06
2.73995e-06
7.69226e-06
1.12296e-05
7.6375e-06
7.27977e-06
2.71169e-06
1.03744e-05
1.12407e-05
1.12483e-05
1.12355e-05
1.12253e-05
1.11075e-05
7.58697e-06
5.28219e-06
1.05695e-05
6.38645e-06
1.10836e-05
1.10304e-05
2.33184e-06
7.73058e-06
8.76725e-06
1.06822e-05
6.27813e-06
1.12143e-05
1.1154e-05
4.16259e-06
6.83364e-07
1.12387e-05
4.02549e-06
1.11426e-05
1.05368e-05
3.39515e-06
4.97485e-06
1.64616e-06
1.1244e-05
1.14489e-05
1.11997e-05
1.11718e-05
7.42998e-06
1.12299e-05
1.12697e-05
3.15545e-06
1.04555e-05
1.12322e-05
1.12089e-05
6.51009e-09
1.12164e-05
2.41364e-06
1.0691e-05
1.12494e-05
1.12462e-05
4.49975e-06
1.12716e-05
1.04167e-05
1.12612e-05
1.12501e-05
1.11147e-05
1.12093e-05
4.08986e-06
5.29106e-06
1.01845e-05
1.04213e-05
1.11128e-05
1.12284e-05
1.10129e-05
1.12417e-05
4.02039e-07
1.07946e-05
2.29274e-07
1.14333e-05
7.78209e-07
3.35996e-06
1.12464e-05
4.57887e-06
1.94742e-06
2.52313e-06
1.12704e-05
3.2526e-06
4.04666e-06
1.11699e-05
1.12409e-05
6.40221e-06
5.91781e-06
1.1262e-05
1.68584e-06
2.36932e-06
1.0926e-06
1.12465e-05
1.12008e-05
1.14459e-05
1.56345e-06
6.27894e-06
1.12458e-05
1.11735e-05
5.39638e-06
7.50707e-06
1.12628e-05
1.0732e-05
2.36155e-06
1.11351e-05
7.32725e-06
1.12648e-05
1.12342e-05
9.44515e-06
1.16567e-05
1.12419e-05
1.11159e-05
4.93032e-06
1.07149e-05
1.12849e-05
1.12516e-05
5.80958e-06
5.5699e-06
5.21802e-06
7.53267e-06
5.21058e-06
4.87122e-06
1.14635e-05
1.12611e-05
1.09559e-05
1.12443e-05
9.99362e-06
3.46421e-06
3.33111e-06
8.76934e-07
2.61794e-06
2.6043e-06
1.29706e-06
1.12599e-05
1.15517e-06
1.05297e-05
1.12467e-05
1.11878e-05
7.2808e-06
1.03312e-05
1.11489e-05
1.12477e-05
1.12656e-05
3.91176e-06
1.12636e-05
5.40746e-06
2.65046e-07
2.25433e-06
1.12688e-05
1.09636e-05
1.06439e-05
8.43117e-06
1.04841e-05
1.12393e-05
1.12641e-05
9.0764e-06
1.11991e-05
1.05255e-05
2.11908e-06
7.38233e-06
8.58503e-06
2.75351e-06
4.50364e-06
1.11397e-05
1.04999e-05
6.24953e-06
6.37983e-06
1.14413e-05
1.1244e-05
1.08322e-05
7.70564e-06
1.04618e-05
1.12491e-05
1.12115e-05
1.12393e-05
5.21844e-06
1.12486e-05
1.10789e-05
9.03601e-06
1.12446e-05
1.12288e-05
1.34819e-06
5.88623e-06
7.68735e-06
1.12628e-05
1.12463e-05
1.1266e-05
1.03935e-05
4.66505e-06
1.12046e-05
1.03848e-05
1.12443e-05
1.01976e-05
4.34492e-06
8.91065e-07
1.05402e-05
1.07983e-05
7.80552e-06
4.06424e-06
1.08706e-05
1.1203e-05
1.12447e-05
9.3039e-07
1.06468e-05
6.62671e-06
1.11431e-05
6.11469e-06
1.07153e-05
3.70602e-06
1.27651e-06
1.14572e-05
1.11953e-05
6.74546e-06
1.52285e-06
3.26077e-06
1.09463e-05
1.06984e-05
7.12996e-06
4.48993e-06
7.45118e-06
1.65387e-07
1.11947e-05
9.6403e-06
1.12691e-05
1.12225e-05
2.53309e-06
3.90681e-06
1.11927e-05
1.11721e-05
1.43446e-06
7.34092e-07
3.75546e-06
1.09311e-05
5.80642e-06
7.24547e-06
1.1242e-05
1.12457e-05
1.0374e-05
5.53692e-06
1.92415e-06
1.12687e-05
4.34902e-06
1.12674e-05
1.10982e-05
1.12982e-05
1.12077e-05
6.57727e-06
7.26974e-06
4.60027e-06
1.29189e-06
1.34864e-06
1.12498e-05
6.61266e-06
1.10075e-06
1.12718e-05
6.83022e-06
2.48706e-06
2.58679e-06
4.20738e-06
1.12424e-05
4.87189e-06
7.87503e-06
1.12651e-05
6.14349e-06
6.71275e-06
3.77809e-06
1.12231e-05
1.09529e-06
1.56608e-06
6.4643e-07
1.0191e-06
1.12156e-05
1.12341e-05
7.4499e-06
1.36138e-06
2.49164e-06
2.46078e-06
1.1242e-05
9.92908e-06
1.12423e-05
1.12705e-05
3.41086e-06
1.12017e-05
1.07188e-05
1.35748e-06
2.58351e-06
7.09325e-06
7.49206e-06
8.86655e-06
3.85758e-06
4.55178e-06
3.03382e-06
3.48341e-06
1.12446e-05
1.04763e-05
4.00457e-06
1.1219e-05
7.02186e-07
3.28873e-06
3.27797e-06
3.28462e-06
1.12408e-05
1.68358e-06
2.49852e-06
1.12177e-05
9.97423e-06
9.56404e-07
1.08489e-05
3.77014e-06
1.1249e-05
1.12662e-05
1.1245e-05
1.12335e-05
2.22321e-06
7.852e-06
1.1263e-05
6.15654e-06
9.61611e-06
4.82528e-06
3.28729e-06
2.67772e-06
1.12572e-05
1.12679e-05
7.04486e-06
2.37917e-06
7.29911e-06
8.24855e-06
4.3248e-06
1.04765e-05
1.09824e-05
4.14166e-06
1.12408e-05
1.22222e-06
1.12504e-05
4.70466e-06
4.69964e-06
4.6952e-06
4.65345e-07
1.09887e-05
1.12466e-05
1.11571e-05
1.04377e-05
3.51985e-06
1.46943e-06
7.92874e-06
5.64653e-06
1.32338e-06
1.08219e-05
6.22173e-06
1.11999e-05
7.47104e-06
1.12359e-05
1.12498e-05
1.08159e-05
5.52711e-06
1.11213e-05
4.70402e-06
4.08069e-06
5.52218e-06
5.52066e-06
1.12332e-05
1.12449e-05
6.40972e-06
6.12482e-06
6.3662e-06
1.27997e-06
7.35534e-06
8.19654e-06
1.09877e-05
7.55428e-06
5.41467e-06
1.0944e-05
6.94781e-06
9.43683e-06
7.64964e-06
5.52288e-06
4.92193e-06
4.42487e-06
9.44005e-08
1.06517e-05
1.08383e-05
7.8159e-06
7.90957e-06
1.12346e-05
1.12329e-05
7.52183e-06
6.84663e-06
1.09686e-07
5.75481e-06
1.2851e-06
1.13116e-05
7.49828e-06
6.11202e-06
2.84553e-07
3.9327e-06
6.94857e-07
6.52868e-06
1.12095e-05
1.05515e-05
1.12348e-05
1.12087e-05
1.12489e-05
1.52169e-06
1.05931e-06
1.44446e-06
1.4303e-06
1.12508e-05
1.12477e-05
1.1094e-05
6.46634e-06
2.83457e-06
6.89035e-06
1.02582e-05
1.07314e-05
1.09878e-05
1.05881e-05
1.12359e-05
1.12229e-05
1.12351e-05
1.12498e-05
1.05576e-05
1.2601e-06
6.63444e-06
1.09773e-05
1.08266e-05
1.12397e-05
1.04962e-05
1.05123e-05
1.12498e-05
1.12124e-05
1.70746e-06
1.09656e-05
1.12119e-05
6.72338e-07
1.12634e-05
1.64434e-06
1.1431e-05
1.14111e-05
7.16932e-06
9.39136e-06
1.12417e-05
1.05209e-05
1.12577e-05
3.84711e-06
1.1131e-05
1.05336e-05
1.11055e-05
9.75212e-06
1.12314e-05
1.12116e-05
1.03513e-05
1.03806e-05
1.10575e-05
1.12505e-05
5.83176e-06
8.8833e-06
6.58692e-07
1.10685e-05
1.12176e-05
1.79774e-06
1.08794e-05
1.12125e-05
5.85614e-07
1.12333e-05
1.12718e-05
1.12338e-05
1.12494e-05
1.11688e-05
1.02821e-05
8.61712e-06
1.09719e-05
8.37462e-06
1.79507e-06
1.11478e-05
5.65057e-07
1.03293e-05
1.12521e-05
1.11342e-05
1.12475e-05
1.12652e-05
1.09247e-05
7.98054e-06
9.77211e-06
2.21625e-06
1.12483e-05
1.05856e-05
1.05445e-05
1.37267e-06
7.85794e-06
1.03735e-06
9.97776e-06
1.12346e-05
1.11899e-05
1.12384e-05
1.0849e-05
1.1098e-05
1.12476e-05
1.08571e-05
1.12357e-05
1.12202e-05
1.11197e-05
1.12698e-05
1.12227e-05
1.1204e-05
1.19359e-06
2.78312e-06
1.0779e-05
1.12697e-05
5.93796e-06
1.40606e-06
4.52876e-06
1.09721e-05
1.58909e-06
7.49159e-06
1.1231e-05
1.12165e-05
1.04082e-05
4.7172e-06
5.46304e-06
1.40048e-06
1.11152e-05
1.05492e-05
1.12436e-05
8.47962e-06
1.14074e-05
1.4716e-06
1.35681e-06
2.28605e-06
1.9322e-07
1.12429e-05
1.12109e-05
5.54451e-06
1.0964e-05
1.02345e-05
1.12314e-05
1.04538e-05
1.11244e-05
9.45207e-06
1.06066e-05
2.10071e-06
8.28842e-06
1.5879e-06
1.04586e-05
1.13344e-05
1.13472e-05
1.05988e-05
1.12484e-05
1.1237e-05
1.07082e-05
1.14716e-06
8.03624e-06
1.13114e-05
1.09315e-05
3.11845e-06
9.16783e-06
1.07502e-05
7.67809e-06
1.12707e-05
1.11698e-05
1.08813e-05
1.12503e-05
1.08616e-05
1.04451e-05
1.04122e-05
1.05394e-05
7.95956e-06
1.03349e-05
1.12328e-05
2.00471e-06
1.14235e-05
6.67186e-06
9.0574e-06
1.05859e-05
1.10745e-05
1.12118e-05
1.14003e-05
1.0752e-05
1.11079e-05
1.08559e-05
1.04294e-05
1.09437e-05
4.55404e-06
1.07947e-05
1.05635e-05
1.12127e-05
1.03758e-05
7.30571e-06
7.91897e-06
7.50917e-06
1.13888e-05
1.12352e-05
1.11683e-05
1.12472e-05
1.56748e-06
1.04528e-05
1.12503e-05
3.88714e-06
7.77146e-06
1.11826e-05
1.12224e-05
1.05056e-05
1.12438e-05
8.35944e-06
1.03754e-05
1.05694e-05
3.4898e-06
8.36427e-06
1.05101e-05
5.36907e-06
1.12414e-05
1.08584e-05
1.05063e-05
1.05392e-05
8.12064e-06
1.07333e-05
1.05394e-05
1.08129e-05
1.13015e-05
1.12434e-05
1.12193e-05
1.12456e-05
8.37722e-06
8.22552e-06
1.04386e-05
1.12004e-05
7.90753e-06
4.26209e-06
1.11035e-05
1.81071e-06
1.08405e-05
1.1247e-05
7.5028e-06
7.59783e-06
7.43299e-06
1.12212e-05
1.03267e-05
1.02796e-05
1.05306e-05
1.06694e-05
1.12293e-05
1.08859e-05
1.05423e-05
7.39775e-06
1.12481e-05
1.05559e-05
9.35588e-06
6.2456e-06
9.6912e-06
4.39938e-06
1.10866e-05
1.06336e-05
1.12478e-05
1.05353e-05
1.14224e-05
1.0972e-05
8.43323e-07
1.09925e-05
1.12103e-05
1.11344e-05
8.02513e-06
1.09206e-05
1.12466e-05
1.05206e-05
1.04721e-05
1.082e-05
1.1236e-05
8.08919e-06
1.12403e-05
3.65682e-06
1.12505e-05
1.1218e-05
8.13962e-06
4.14288e-06
4.60205e-06
1.1272e-05
7.93802e-06
1.07402e-05
8.2737e-06
1.08584e-05
1.06687e-05
1.10995e-05
1.47473e-06
1.07605e-05
1.12496e-05
4.25633e-06
1.0978e-05
9.44878e-06
1.05573e-05
6.95698e-06
8.17808e-06
1.04233e-05
1.12479e-05
1.12247e-05
1.07911e-05
1.094e-05
1.10776e-05
8.21639e-06
7.32003e-06
1.05538e-05
1.07792e-05
6.33381e-06
1.09037e-05
1.12263e-05
1.11118e-05
5.47357e-07
1.07323e-05
1.0781e-05
6.94823e-06
1.10022e-05
1.12294e-05
1.12556e-05
1.08321e-05
7.35242e-06
1.1183e-05
1.09536e-05
1.11877e-05
8.17758e-06
1.11947e-05
8.66613e-06
1.08461e-05
1.08141e-05
1.12465e-05
2.93335e-06
7.97453e-06
6.76482e-07
4.61442e-06
1.09651e-05
7.3063e-06
1.11906e-05
1.03779e-05
4.45968e-06
1.94225e-06
1.14219e-05
1.09606e-05
1.1256e-05
1.10453e-05
3.99775e-06
8.41113e-06
9.24389e-06
1.1256e-05
1.12527e-05
1.09202e-05
1.1357e-05
1.12273e-05
3.18469e-06
1.08636e-05
2.70299e-06
8.7931e-06
1.05944e-05
8.18602e-06
1.054e-05
1.12388e-05
1.09268e-05
1.03205e-05
2.51029e-06
2.46113e-06
1.07698e-05
1.09143e-05
1.11716e-05
1.12344e-05
1.11168e-05
1.12324e-05
1.10893e-05
7.89361e-06
1.12837e-05
1.12456e-05
1.88563e-06
3.53246e-06
1.06954e-05
1.08762e-05
9.7147e-07
1.12564e-05
1.11312e-05
7.31162e-06
1.1209e-05
9.0535e-06
1.07427e-05
9.23102e-06
1.10991e-05
1.12276e-05
3.77312e-06
8.64252e-06
1.0825e-05
4.11921e-06
1.10551e-05
9.67373e-06
8.08698e-06
8.30742e-06
1.1139e-05
1.11195e-05
1.04796e-05
1.10769e-05
1.09826e-05
7.49004e-06
1.125e-05
1.12395e-05
1.07645e-05
1.0379e-06
4.94758e-06
7.25752e-06
7.14834e-07
1.10126e-05
1.12055e-05
8.66354e-06
8.3757e-06
1.08854e-05
1.02429e-05
1.11154e-05
1.11987e-05
1.07836e-05
1.09746e-05
8.93298e-06
1.31998e-06
1.12294e-05
7.74196e-06
1.12322e-05
7.76819e-06
7.82654e-06
1.1161e-05
1.09749e-05
1.09693e-05
1.12676e-05
1.09207e-05
1.12394e-05
1.11374e-05
1.11334e-05
1.05788e-05
8.23016e-07
1.12259e-05
1.13635e-05
1.12449e-05
9.88791e-06
1.12962e-05
7.38758e-06
7.17488e-06
1.11856e-05
1.09178e-05
1.10032e-05
1.09476e-05
1.1166e-05
9.27257e-06
1.12168e-05
1.12814e-05
1.12311e-05
1.12198e-05
1.11463e-05
1.12287e-05
1.07602e-05
1.11798e-05
1.13597e-05
1.11906e-05
8.64508e-06
7.9538e-06
1.11053e-05
1.14271e-05
1.12564e-05
1.11471e-05
1.1225e-05
1.12261e-05
1.11023e-05
1.14028e-05
1.12652e-05
8.55337e-06
1.12462e-05
8.26803e-06
1.12079e-05
1.12675e-05
1.10912e-05
1.11607e-05
1.06261e-05
1.12799e-05
8.07357e-06
1.10105e-05
1.08271e-05
1.11244e-05
1.04973e-05
1.13475e-05
1.13249e-05
1.12067e-05
8.1077e-06
8.42776e-06
1.08164e-05
1.0649e-05
1.12547e-05
1.0958e-05
9.02078e-06
7.68803e-06
1.11499e-05
1.11961e-05
1.67444e-06
9.71142e-06
1.11078e-05
1.12231e-05
8.79792e-06
1.10244e-05
7.76535e-06
1.12141e-05
1.12174e-05
1.1224e-05
8.02154e-06
1.12449e-05
1.12258e-05
1.12188e-05
1.1018e-05
8.00947e-06
1.11167e-05
1.1221e-05
6.73878e-07
8.38013e-06
2.57735e-06
1.12584e-05
1.12631e-05
1.12274e-05
1.12252e-05
1.11797e-05
1.12322e-05
1.05849e-05
1.08247e-05
1.12159e-05
1.10686e-05
7.81776e-06
1.09635e-05
1.10721e-05
1.12267e-05
1.10112e-06
1.12046e-05
1.12224e-05
1.12069e-05
1.13612e-05
1.11136e-05
1.12306e-05
1.11341e-05
1.80774e-06
1.12273e-05
1.15514e-05
1.12018e-05
1.12477e-05
1.12456e-05
1.12283e-05
3.64846e-06
1.11798e-05
1.07513e-05
8.27625e-06
1.14379e-05
1.12168e-05
1.12555e-05
1.11322e-05
1.10253e-05
1.12213e-05
1.12477e-05
1.12302e-05
1.12582e-05
1.10837e-05
8.57137e-06
1.12364e-05
1.12258e-05
1.12222e-05
1.09645e-05
1.11787e-05
1.1218e-05
1.12372e-05
1.12406e-05
1.12456e-05
1.12255e-05
1.05675e-05
8.61855e-06
1.12322e-05
1.13401e-05
1.11687e-05
7.94482e-06
1.12017e-05
1.12325e-05
1.12358e-05
1.12502e-05
1.12382e-05
1.10783e-05
1.12287e-05
1.11322e-05
1.1162e-05
6.22144e-06
1.15019e-05
1.12031e-05
7.56768e-06
1.11783e-05
1.06053e-05
1.12369e-05
1.11566e-05
1.12256e-05
9.43826e-06
1.12486e-05
1.12474e-05
1.12021e-05
6.4174e-06
1.12344e-05
1.1249e-05
8.02402e-06
1.12067e-05
1.12321e-05
1.12263e-05
1.12104e-05
1.12138e-05
1.12477e-05
1.11245e-05
1.12338e-05
1.1068e-05
4.48669e-06
7.51709e-06
1.1232e-05
1.12076e-05
1.1228e-05
1.12394e-05
3.88434e-06
1.10085e-05
1.12368e-05
1.09683e-05
1.12327e-05
7.53592e-06
1.1232e-05
1.12274e-05
1.11476e-05
1.12547e-05
1.05682e-05
1.1244e-05
1.10191e-05
6.91467e-06
3.06349e-06
1.12344e-05
1.11707e-05
1.12145e-05
1.12145e-05
1.12587e-05
6.00179e-06
1.11427e-05
1.12099e-05
7.61562e-06
1.115e-05
1.12221e-05
1.12602e-05
1.11655e-05
1.1234e-05
1.12053e-05
2.33659e-06
1.12402e-05
1.14246e-05
8.62384e-06
1.04621e-05
7.78995e-06
7.19562e-06
1.12547e-05
1.12299e-05
1.12312e-05
1.12564e-05
1.12185e-05
8.37749e-06
6.72215e-06
1.12975e-05
1.12284e-05
1.12449e-05
7.70411e-06
1.12214e-05
1.12261e-05
1.11891e-05
1.12281e-05
1.12486e-05
1.12478e-05
1.12331e-05
1.12504e-05
1.15302e-05
8.14404e-06
1.13581e-05
1.12311e-05
8.13232e-06
1.12294e-05
1.13271e-05
1.1259e-05
1.13595e-05
1.12384e-05
5.79521e-06
1.1196e-05
1.12548e-05
1.12323e-05
1.12941e-05
1.13308e-05
7.50796e-06
1.12308e-05
1.12324e-05
1.13078e-05
1.15125e-05
1.12346e-05
1.12508e-05
1.1246e-05
1.12164e-05
1.12327e-05
1.12513e-05
1.12505e-05
7.81318e-06
8.66974e-06
1.12526e-05
8.36119e-06
1.11783e-05
1.12244e-05
1.12325e-05
1.12536e-05
8.43441e-06
4.83502e-06
1.12346e-05
1.13227e-05
1.12254e-05
1.12054e-05
1.12209e-05
1.12492e-05
1.12033e-05
7.53746e-06
1.11925e-05
1.12308e-05
1.11474e-05
8.07237e-06
1.12452e-05
8.02866e-06
1.12533e-05
1.13271e-05
1.12301e-05
1.12263e-05
1.1255e-05
1.11898e-05
1.12421e-05
1.12224e-05
1.11983e-05
1.12241e-05
1.1232e-05
1.1193e-05
1.1232e-05
8.4923e-06
1.1236e-05
1.12483e-05
1.12197e-05
1.11821e-05
1.12284e-05
1.12337e-05
1.12064e-05
1.12233e-05
2.34057e-06
1.1225e-05
1.12312e-05
1.12106e-05
1.12212e-05
1.12574e-05
1.11832e-05
1.13102e-05
7.64671e-06
1.12447e-05
1.12199e-05
1.12115e-05
8.13052e-06
1.12345e-05
1.12109e-05
-5.44098e-08
1.12448e-05
1.12973e-05
1.11989e-05
1.12055e-05
1.12574e-05
3.16804e-06
5.8695e-06
1.13713e-05
1.1166e-05
1.13864e-05
7.40092e-06
1.11892e-05
4.13908e-06
1.12214e-05
1.11618e-05
1.12346e-05
1.12599e-05
7.47315e-06
1.13156e-05
7.94684e-06
1.11871e-05
8.07575e-06
1.13347e-05
1.12225e-05
1.12261e-05
1.12908e-05
1.12515e-05
1.12374e-05
1.09236e-05
1.11965e-05
1.12243e-05
1.124e-05
1.05837e-05
1.12527e-05
1.15096e-05
1.12505e-05
1.12241e-05
1.12172e-05
7.60155e-06
1.12314e-05
1.12519e-05
1.12312e-05
1.05989e-05
1.11955e-05
1.13268e-05
7.82876e-06
7.91206e-06
4.58604e-06
1.12394e-05
1.12595e-05
7.8238e-06
1.12048e-05
1.12386e-05
1.11222e-05
1.12376e-05
1.12432e-05
1.12374e-05
1.13543e-05
1.13503e-05
1.12499e-05
1.12084e-05
1.12295e-05
1.12397e-05
1.12285e-05
1.12691e-05
1.11859e-05
1.12287e-05
1.12515e-05
8.12178e-06
1.09125e-05
1.13087e-05
1.12475e-05
1.12146e-05
6.64036e-06
5.40833e-06
1.12566e-05
1.1235e-05
1.11952e-05
1.11977e-05
1.12202e-05
7.80238e-06
1.1231e-05
1.12177e-05
7.91261e-06
1.11442e-05
1.12263e-05
1.12554e-05
1.11882e-05
1.12598e-05
1.12672e-05
3.88581e-06
3.90596e-06
1.15774e-05
1.12117e-05
1.12512e-05
1.12446e-05
7.94343e-06
1.12235e-05
1.12228e-05
1.12732e-05
1.12609e-05
1.14702e-05
1.12465e-05
1.12518e-05
3.6514e-06
7.84899e-06
1.23164e-06
1.12496e-05
1.12336e-05
2.37972e-06
1.12193e-05
8.02708e-06
1.1254e-05
6.60357e-06
1.1322e-05
1.12488e-05
1.0978e-05
1.12321e-05
8.15053e-06
7.94073e-06
7.39866e-06
1.12153e-05
1.12569e-05
1.12615e-05
1.12413e-05
1.12283e-05
1.13249e-05
8.14075e-06
1.12527e-05
1.12295e-05
1.12345e-05
1.1202e-05
1.12299e-05
4.03317e-06
1.12249e-05
1.12503e-05
1.12362e-05
1.12433e-05
1.12449e-05
7.42089e-06
1.14972e-05
1.14849e-05
1.12034e-05
1.1228e-05
1.126e-05
1.12508e-05
1.12468e-05
6.74185e-06
1.11462e-05
1.11938e-05
1.13397e-05
1.12526e-05
1.12394e-05
1.12285e-05
1.08853e-05
1.12144e-05
6.45959e-06
7.07309e-06
1.12464e-05
1.12556e-05
1.11131e-05
1.12251e-05
1.12286e-05
1.12113e-05
1.11976e-05
2.88458e-06
1.12443e-05
1.12498e-05
7.13512e-06
1.12327e-05
7.02265e-06
1.12319e-05
1.07227e-05
1.1229e-05
1.12447e-05
1.1252e-05
7.70595e-06
1.12157e-05
1.12093e-05
1.12314e-05
1.13783e-05
1.12607e-05
1.12338e-05
1.1264e-05
1.12454e-05
7.19901e-06
1.12554e-05
1.12412e-05
1.12413e-05
1.12187e-05
1.12322e-05
1.12285e-05
4.37759e-06
6.96494e-06
1.12249e-05
7.38651e-06
1.12516e-05
1.12187e-05
1.12491e-05
1.12424e-05
1.12428e-05
1.12209e-05
1.13562e-05
1.12876e-05
1.12451e-05
1.12485e-05
1.13206e-05
1.11843e-05
8.76625e-06
1.12618e-05
1.11991e-05
1.12852e-05
1.13088e-05
1.12456e-05
1.12432e-05
1.12557e-05
1.11729e-05
7.18893e-06
1.12208e-05
1.1248e-05
7.29924e-06
1.12421e-05
7.22521e-06
1.12627e-05
1.12486e-05
1.12305e-05
1.12413e-05
1.1218e-05
1.12562e-05
5.68013e-06
1.1357e-05
1.12611e-05
1.12059e-05
1.12274e-05
1.11866e-05
1.12449e-05
1.11566e-05
1.12488e-05
1.12286e-05
1.12522e-05
6.82559e-06
1.12482e-05
1.12825e-05
1.1189e-05
1.12572e-05
7.29748e-06
1.12572e-05
1.12217e-05
1.12903e-05
1.12546e-05
1.11066e-05
7.3486e-06
1.12514e-05
1.12591e-05
1.11244e-05
1.12438e-05
1.12453e-05
1.12503e-05
7.61037e-06
1.12444e-05
1.12273e-05
7.03818e-06
1.12135e-05
1.12498e-05
1.1237e-05
1.12164e-05
1.12127e-05
1.12662e-05
1.13118e-05
7.08026e-06
7.18933e-06
1.10801e-05
1.17953e-06
1.14766e-05
1.12437e-05
1.12281e-05
1.12709e-05
7.28876e-06
1.12622e-05
1.12076e-05
1.12447e-05
1.12301e-05
1.12403e-05
7.43162e-06
7.63631e-06
7.11009e-06
6.98317e-06
6.93402e-06
1.35286e-06
3.15796e-06
1.12495e-05
1.12504e-05
6.85151e-06
6.83358e-06
6.94704e-06
1.12476e-05
1.11973e-05
1.12593e-05
1.12281e-05
1.12436e-05
1.12484e-05
1.12502e-05
1.12555e-05
1.12406e-05
1.12474e-05
1.12423e-05
1.12482e-05
4.57966e-06
1.12441e-05
1.12518e-05
1.12468e-05
1.12493e-05
1.1247e-05
1.12447e-05
7.28065e-06
1.0525e-05
1.125e-05
1.145e-05
1.146e-05
1.12678e-05
6.70689e-06
1.12591e-05
1.12488e-05
5.40287e-06
1.12157e-05
1.12557e-05
7.17e-06
7.102e-06
7.35144e-06
7.45159e-06
6.76889e-06
1.12493e-05
1.12364e-05
1.12569e-05
1.13022e-05
1.12487e-05
1.12454e-05
1.12231e-05
6.83213e-06
6.70886e-06
1.12949e-05
1.12594e-05
1.12424e-05
1.12511e-05
1.12569e-05
7.52419e-06
6.947e-06
6.87817e-06
1.12485e-05
1.12446e-05
1.14395e-05
1.12496e-05
1.13742e-05
1.12268e-05
7.95498e-06
1.1209e-05
1.12565e-05
6.24625e-06
6.80891e-06
7.02375e-06
1.12385e-05
1.06141e-05
1.12415e-05
1.48926e-06
6.52612e-06
7.54204e-06
1.12622e-05
1.12043e-05
6.92017e-06
1.12327e-05
7.04373e-06
1.12364e-05
1.11697e-05
1.12495e-05
6.64965e-06
1.12637e-05
1.11618e-05
1.12544e-05
1.12613e-05
1.12567e-05
6.26287e-06
1.125e-05
7.07793e-06
1.12523e-05
1.12238e-05
1.13134e-05
7.17022e-06
1.12482e-05
6.70199e-06
1.12339e-05
1.12816e-05
6.99056e-06
1.12382e-05
6.5727e-06
1.12643e-05
6.51159e-06
7.24854e-06
1.12252e-05
1.12523e-05
6.91102e-06
7.15042e-06
7.22805e-06
7.19676e-06
1.1251e-05
1.11962e-05
1.12454e-05
6.4554e-06
1.12291e-05
1.47067e-06
1.12587e-05
7.07053e-06
1.1222e-05
6.87441e-06
6.62817e-06
2.27546e-06
6.58211e-06
6.52836e-06
1.12358e-05
7.11027e-06
7.0745e-06
2.72294e-06
6.62937e-06
6.79054e-06
6.60054e-06
7.15749e-06
1.12372e-05
7.17264e-06
1.12558e-05
7.04664e-06
7.20249e-06
6.99495e-06
5.14873e-06
1.12633e-05
5.25759e-06
6.44485e-06
6.87794e-06
5.91921e-06
7.07484e-06
1.12526e-05
5.7978e-06
6.4091e-06
5.64545e-06
1.12032e-05
6.94461e-06
6.64196e-06
7.00382e-06
6.67195e-06
6.76514e-06
3.92595e-06
3.98986e-06
6.03297e-06
7.23041e-06
6.58926e-06
5.7861e-06
6.51162e-06
6.78967e-06
7.30188e-06
6.28678e-06
6.03305e-06
5.77417e-06
5.5249e-06
6.80788e-06
6.55176e-06
6.76601e-06
1.12622e-05
6.70799e-06
6.85513e-06
6.39024e-06
6.67027e-06
6.88372e-06
6.0871e-06
6.24459e-06
6.95361e-06
7.04235e-06
6.72554e-06
6.45454e-06
6.15916e-06
6.42964e-06
5.83124e-06
5.90221e-06
1.12434e-05
6.51994e-06
3.04587e-06
6.35156e-06
6.31682e-06
6.1893e-06
5.71153e-06
5.42172e-06
1.12485e-05
6.05277e-06
4.45943e-06
5.99862e-06
6.30477e-06
6.28368e-06
6.48831e-06
5.28791e-06
6.12326e-06
6.4871e-06
6.19242e-06
6.5985e-06
6.60198e-06
6.5848e-06
7.30315e-06
5.95684e-06
6.6089e-06
6.33483e-06
5.86611e-06
6.36294e-06
6.05379e-06
5.87871e-06
6.56712e-06
6.33393e-06
6.11262e-06
6.13068e-06
6.23993e-06
5.90983e-06
6.22758e-06
6.21549e-06
5.64762e-06
6.46928e-06
5.76351e-06
5.89259e-06
7.1027e-06
5.55273e-06
5.96387e-06
5.75008e-06
6.37002e-06
6.07396e-06
6.16454e-06
5.94822e-06
1.12408e-05
6.14329e-06
6.00966e-06
5.92547e-06
5.87454e-06
5.78748e-06
5.92107e-06
5.6541e-06
6.32288e-06
6.31997e-06
6.00058e-06
5.69975e-06
5.98574e-06
1.12658e-05
5.88708e-06
7.0517e-06
5.90253e-06
5.7732e-06
5.54918e-06
5.44419e-06
6.0244e-06
5.90913e-06
5.4885e-06
5.85474e-06
5.81611e-06
6.11066e-06
5.79674e-06
5.86923e-06
5.74592e-06
5.64775e-06
5.59644e-06
5.90297e-06
5.76537e-06
6.04781e-06
5.38196e-06
5.84935e-06
5.83152e-06
5.87341e-06
5.22618e-06
5.3241e-06
5.64478e-06
5.27146e-06
5.44773e-06
5.79997e-06
5.58807e-06
5.76624e-06
5.76249e-06
5.64283e-06
5.88262e-06
6.75096e-06
5.25144e-06
5.72781e-06
5.72312e-06
5.35497e-06
5.63025e-06
5.13028e-06
5.69777e-06
5.52247e-06
5.33402e-06
6.00446e-06
5.15656e-06
5.16341e-06
5.53082e-06
5.52469e-06
3.71932e-06
5.28088e-06
5.49938e-06
5.04043e-06
5.241e-06
5.21808e-06
5.60274e-06
5.31708e-06
5.43447e-06
5.41992e-06
5.64242e-06
5.60331e-06
4.7837e-06
4.92775e-06
5.30619e-06
5.38216e-06
5.45148e-06
5.8041e-06
4.95952e-06
4.88186e-06
5.20535e-06
4.43648e-06
5.25103e-06
5.34092e-06
5.15565e-06
5.11439e-06
4.20337e-06
4.5532e-06
4.62634e-06
5.00095e-06
5.232e-06
4.82255e-06
4.82328e-06
5.12759e-06
4.89942e-06
5.24621e-06
4.90183e-06
5.25557e-06
5.08268e-06
4.67805e-06
5.09569e-06
4.68089e-06
4.56511e-06
4.48183e-06
4.99288e-06
5.0324e-06
4.80873e-06
5.08703e-06
5.02167e-06
4.98052e-06
4.72455e-06
5.09736e-06
4.58939e-06
4.66906e-06
5.11166e-06
4.59143e-06
4.75924e-06
4.98876e-06
4.71759e-06
5.14437e-06
4.32129e-06
4.79576e-06
5.35375e-06
4.90767e-06
4.98287e-06
4.86345e-06
4.48433e-06
4.93383e-06
4.36997e-06
4.55573e-06
4.68608e-06
4.82709e-06
5.05985e-06
4.75827e-06
4.58151e-06
4.48509e-06
4.84376e-06
4.69037e-06
4.82298e-06
6.64324e-06
4.36568e-06
4.71384e-06
1.41525e-06
1.47282e-06
4.67225e-06
4.61543e-06
4.42663e-06
4.38089e-06
4.74383e-06
4.62796e-06
3.62598e-06
4.46948e-06
4.67742e-06
4.7731e-06
4.24679e-06
4.64012e-06
5.18055e-06
4.25575e-06
4.55007e-06
4.92627e-06
4.56284e-06
4.13897e-06
4.46927e-06
4.31265e-06
4.74343e-06
4.59121e-06
4.06332e-06
4.67438e-06
4.46156e-06
3.77579e-06
4.59546e-06
3.97489e-06
4.37444e-06
4.43629e-06
4.27083e-06
4.46053e-06
3.68981e-06
6.26546e-06
4.38918e-06
3.95346e-06
4.23944e-06
4.11035e-06
4.3607e-06
3.69921e-06
3.83056e-06
4.11677e-06
3.82203e-06
3.89541e-06
4.27356e-06
4.16306e-06
4.19187e-06
3.8855e-06
4.20825e-06
4.03539e-06
3.79482e-06
4.40767e-06
4.16821e-06
4.24497e-06
4.1148e-06
3.71992e-06
4.06594e-06
4.13624e-06
4.07966e-06
3.98039e-06
4.28477e-06
3.89689e-06
3.58902e-06
4.16877e-06
3.86155e-06
3.95348e-06
4.0754e-06
2.63955e-06
3.65314e-06
3.84458e-06
4.00423e-06
3.9074e-06
4.04986e-06
4.50031e-06
3.08209e-06
3.78515e-06
3.45415e-06
3.53175e-06
3.96891e-06
3.99228e-06
3.8677e-06
3.76081e-06
3.78614e-06
3.78665e-06
3.4832e-06
3.67818e-06
3.50403e-06
3.0036e-06
2.60976e-06
3.19902e-06
2.73464e-06
4.76669e-06
3.32385e-06
3.72521e-06
2.90469e-06
3.66723e-06
3.62826e-06
3.53487e-06
3.07326e-06
2.79533e-06
3.57188e-06
3.76016e-06
3.54605e-06
3.40234e-06
3.0396e-06
3.65899e-06
2.37408e-06
3.30494e-06
2.49072e-06
3.59575e-06
3.2761e-06
2.87254e-06
3.56057e-06
3.64447e-06
3.41205e-06
3.56113e-06
3.53836e-06
3.26179e-06
3.13901e-06
3.69364e-06
3.28751e-06
2.25569e-06
2.66355e-06
3.36291e-06
3.53233e-06
3.44502e-06
3.44155e-06
3.39217e-06
3.146e-06
2.83872e-06
3.19565e-06
2.73518e-06
3.02228e-06
2.94514e-06
3.12746e-06
3.31459e-06
2.95575e-06
3.13445e-06
3.18748e-06
3.21761e-06
4.35067e-06
3.44965e-06
3.35434e-06
2.91513e-06
3.40116e-06
3.78547e-06
3.31253e-06
3.43281e-06
3.30653e-06
3.05022e-06
2.97559e-06
2.83083e-06
3.22273e-06
3.01631e-06
2.9526e-06
3.27386e-06
3.52321e-06
3.11837e-06
2.92112e-06
2.53277e-06
3.06297e-06
3.38674e-06
3.20074e-06
2.64099e-06
3.03485e-06
2.94078e-06
3.08166e-06
3.31063e-06
2.9392e-06
2.81641e-06
2.73641e-06
2.58646e-06
3.00847e-06
2.23788e-06
2.33547e-06
2.90393e-06
2.73923e-06
2.71439e-06
3.19468e-06
2.45371e-06
2.51412e-06
2.97441e-06
3.00978e-06
2.80752e-06
2.67772e-06
2.4879e-06
2.64231e-06
2.82108e-06
2.41632e-06
2.50573e-06
2.53873e-06
2.87982e-06
2.72169e-06
2.84112e-06
2.11078e-06
2.49892e-06
2.59424e-06
2.40162e-06
2.30382e-06
3.91885e-06
2.73245e-06
2.58516e-06
2.57257e-06
2.76825e-06
2.84249e-06
2.26564e-06
2.80917e-06
2.58972e-06
2.62965e-06
2.1849e-06
2.2139e-06
2.36506e-06
2.4875e-06
2.63703e-06
2.59031e-06
2.36278e-06
2.70782e-06
2.14649e-06
2.73081e-06
2.0614e-06
2.59131e-06
1.76569e-06
2.2958e-06
2.26809e-06
1.95987e-06
2.06306e-06
2.40969e-06
1.9522e-06
1.92881e-06
3.3456e-06
2.22857e-06
2.38853e-06
2.08529e-06
2.08391e-06
1.80792e-06
1.86834e-06
1.88854e-06
2.07884e-06
1.88961e-06
2.18653e-06
1.94361e-06
1.93883e-06
1.88053e-06
1.98842e-06
2.13644e-06
1.68647e-06
1.6791e-06
1.86627e-06
1.66927e-06
2.07898e-06
1.71674e-06
1.80902e-06
2.17997e-06
2.02119e-06
1.64276e-06
1.56641e-06
2.00218e-06
1.68511e-06
1.76765e-06
1.97409e-06
1.6232e-06
1.44732e-06
1.77007e-06
1.553e-06
1.65209e-06
1.57499e-06
1.74196e-06
1.3296e-06
1.56881e-06
1.40019e-06
1.59361e-06
1.89927e-06
1.40243e-06
1.83291e-06
1.78451e-06
1.2955e-06
1.93616e-06
1.44502e-06
4.29614e-06
1.63999e-06
2.29673e-06
1.57032e-06
1.49693e-06
1.50549e-06
5.10163e-06
3.96973e-06
3.70305e-06
2.60525e-06
1.73537e-06
2.16066e-06
1.13895e-06
1.40379e-06
1.34371e-06
2.36299e-06
1.18994e-06
1.66622e-06
6.27298e-06
2.73286e-06
3.34189e-06
2.44681e-06
1.69617e-06
3.74407e-06
4.11813e-06
3.83169e-06
2.72814e-06
2.07925e-06
5.54356e-06
2.0108e-06
4.97091e-06
1.47565e-06
1.29369e-06
1.53475e-06
5.71693e-06
1.55868e-06
7.27018e-06
3.16022e-06
3.2323e-06
3.45672e-06
3.40582e-06
5.6277e-06
3.58949e-06
2.60078e-06
2.59052e-06
3.49041e-06
3.64403e-06
3.63803e-06
1.24387e-06
4.81475e-06
4.77356e-06
2.3805e-06
5.98534e-06
3.67886e-06
6.49617e-07
2.87206e-06
1.41011e-06
4.06467e-06
7.35835e-06
7.63696e-06
2.30919e-06
1.76792e-06
1.61839e-06
5.18721e-06
1.80111e-06
5.16733e-06
1.55745e-06
5.69024e-06
5.89762e-06
2.19455e-06
7.73024e-06
1.38824e-06
1.46498e-06
3.96702e-06
6.06265e-06
4.58484e-06
4.96138e-06
5.27329e-06
6.15601e-06
2.75921e-06
8.27228e-06
1.46613e-06
4.17596e-06
1.61568e-06
7.16611e-06
7.40797e-06
1.4371e-06
7.63814e-07
7.42732e-06
5.92542e-06
6.04658e-06
6.2698e-06
7.37899e-06
8.74471e-07
9.62016e-07
5.0774e-06
5.63944e-06
7.4945e-06
6.04472e-06
1.53675e-06
4.2759e-06
7.63529e-06
5.52471e-06
1.50266e-06
5.40187e-06
7.91437e-06
6.34274e-06
8.16206e-06
3.38327e-06
2.15405e-06
2.04021e-06
1.47028e-06
7.14853e-06
6.98811e-06
6.1265e-06
1.21132e-06
1.30828e-06
1.94379e-06
7.35146e-06
1.2907e-06
1.53962e-06
1.5257e-06
2.08026e-06
2.54175e-06
1.51057e-06
1.40391e-06
2.58416e-06
1.51314e-06
1.66706e-06
2.09889e-06
1.83843e-06
2.43723e-06
1.66955e-06
2.09139e-06
2.4653e-06
1.84389e-06
2.17305e-06
2.01088e-06
2.66397e-06
2.44944e-06
2.03281e-06
2.05074e-06
2.01181e-06
2.17408e-06
3.03394e-06
2.13249e-06
3.23439e-06
1.98127e-06
2.1161e-06
2.19628e-06
1.9668e-06
3.27342e-06
2.13184e-06
2.87924e-06
2.29423e-06
2.30703e-06
3.17188e-06
2.34549e-06
3.4329e-06
3.87561e-06
3.01836e-06
2.40923e-06
3.77315e-06
3.45307e-06
3.50582e-06
3.52316e-06
3.28476e-06
3.17668e-06
3.37319e-06
2.48523e-06
3.39699e-06
3.1518e-06
3.33624e-06
2.43255e-06
3.38457e-06
4.27829e-06
3.49476e-06
3.60759e-06
3.66473e-06
3.31613e-06
4.33165e-06
3.3954e-06
3.56874e-06
3.69536e-06
4.01887e-06
3.59175e-06
3.43041e-06
4.1136e-06
4.67298e-06
4.01871e-06
4.31951e-06
4.25961e-06
5.01787e-06
4.13511e-06
4.3848e-06
3.43972e-06
4.98399e-06
4.22336e-06
4.50682e-06
4.64391e-06
4.18693e-06
4.55578e-06
4.84322e-06
5.28091e-06
4.67277e-06
4.78472e-06
4.89033e-06
5.63523e-06
4.95577e-06
4.79518e-06
5.21142e-06
5.62089e-06
5.25516e-06
4.85391e-06
4.79112e-06
4.73238e-06
5.50338e-06
5.35676e-06
4.87735e-06
4.81374e-06
4.91304e-06
5.34268e-06
4.99458e-06
5.43033e-06
4.9302e-06
5.55497e-06
5.04049e-06
5.74501e-06
5.53043e-06
5.42986e-06
6.23932e-06
5.64979e-06
5.71173e-06
5.75414e-06
6.096e-06
5.71742e-06
5.05026e-06
6.46332e-06
5.6286e-06
1.12647e-05
5.97238e-06
6.76245e-06
6.01698e-06
6.60423e-06
6.67884e-06
1.12297e-05
6.22291e-06
6.79891e-06
6.92057e-06
1.36203e-06
6.24845e-06
6.47161e-06
1.12507e-05
6.98175e-06
6.86638e-06