/*--------------------------------*- C++ -*----------------------------------*\
  =========                 |
  \\      /  F ield         | OpenFOAM: The Open Source CFD Toolbox
   \\    /   O peration     | Website:  https://openfoam.org
    \\  /    A nd           | Version:  8
     \\/     M anipulation  |
\*---------------------------------------------------------------------------*/
FoamFile
{
    version     2.0;
    format      ascii;
    class       volScalarField;
    location    "4.4";
    object      p;
}
// * * * * * * * * * * * * * * * * * * * * * * * * * * * * * * * * * * * * * //

dimensions      [0 2 -2 0 0 0 0];

internalField   nonuniform List<scalar> 
5119
(
4.23549e-06
1.13851e-05
1.13771e-05
1.09198e-05
5.0382e-06
1.14843e-05
1.13627e-05
1.13798e-05
1.04074e-05
1.98293e-06
1.09274e-05
2.00474e-06
5.33105e-06
1.11923e-05
3.67976e-06
6.64467e-06
7.70042e-06
1.16998e-06
2.78988e-06
2.8718e-06
6.64808e-06
5.85391e-06
3.83837e-06
1.78841e-06
7.04525e-06
6.50049e-06
3.88342e-06
3.92616e-06
3.96134e-06
1.1002e-06
1.45549e-06
2.73239e-06
6.41367e-06
3.61584e-06
4.44892e-06
1.15561e-06
1.13395e-06
1.1473e-06
4.79972e-06
8.48071e-06
1.13753e-05
5.04616e-06
7.82557e-06
7.85801e-06
8.23097e-06
1.13905e-05
8.7361e-06
8.32462e-06
8.30418e-06
7.35597e-06
1.1267e-05
1.09199e-05
1.16958e-05
1.14068e-05
1.11999e-05
8.62894e-06
1.09747e-05
1.13826e-05
5.93843e-06
8.98801e-06
7.99268e-06
7.74e-06
8.70184e-06
8.25808e-06
1.13806e-05
9.17397e-06
1.12891e-05
1.10795e-05
8.78215e-06
1.11862e-05
1.12638e-05
1.13883e-05
1.13033e-05
8.76725e-06
7.35387e-06
8.50405e-06
1.13817e-05
1.13764e-05
9.19992e-06
9.00815e-06
1.05858e-05
1.1102e-05
1.06735e-06
5.50614e-07
1.13951e-05
8.21985e-07
1.14111e-05
8.01276e-06
5.58733e-07
5.65389e-07
5.63817e-07
5.43159e-07
1.13811e-05
1.08343e-05
8.92663e-06
1.09691e-05
1.16457e-05
8.91568e-06
1.0962e-05
1.01723e-06
6.66046e-06
6.5405e-06
1.02915e-05
9.1294e-06
1.13814e-05
1.13902e-05
9.39262e-06
1.1321e-05
1.10931e-05
1.14055e-05
1.01006e-05
1.139e-05
1.13884e-05
1.96438e-06
1.13771e-05
1.10183e-05
1.08886e-05
1.13886e-05
1.11178e-05
8.60921e-07
1.13016e-05
4.26544e-06
1.03532e-05
6.06894e-06
7.10767e-06
3.27832e-06
6.10833e-06
5.91636e-06
2.19494e-06
4.39239e-06
6.50007e-06
1.70095e-06
1.69433e-06
3.32644e-06
1.14329e-05
1.13075e-05
1.00776e-05
3.25157e-06
1.1296e-05
4.01953e-06
5.91828e-06
8.00175e-06
5.388e-06
4.24638e-06
4.37852e-06
4.34608e-06
1.74335e-06
1.77816e-06
1.76186e-06
1.08612e-05
9.56732e-06
1.14427e-05
9.23801e-06
1.08686e-05
1.09763e-05
8.58544e-07
1.09931e-05
1.1625e-05
1.1328e-05
1.07478e-05
9.60813e-06
1.13988e-05
1.13321e-05
9.03676e-06
1.13854e-05
1.13493e-05
1.13857e-05
1.13836e-05
1.13852e-05
1.10003e-05
1.12647e-05
9.2377e-06
1.11098e-05
1.121e-05
1.1051e-05
1.12016e-05
1.12939e-05
3.03442e-06
1.13921e-05
4.61114e-06
1.13114e-05
1.12847e-05
8.94904e-06
8.87203e-06
1.13848e-05
1.09462e-05
1.13921e-05
1.1307e-05
1.12803e-05
1.13671e-05
1.07297e-05
9.79562e-06
8.98877e-06
1.11302e-05
1.13768e-05
1.07631e-05
1.14138e-05
1.12754e-05
1.0339e-05
1.15069e-05
1.1385e-05
9.56364e-06
1.1385e-05
1.94855e-06
3.48952e-06
4.24873e-06
5.84377e-06
9.54467e-06
1.12399e-05
1.11206e-05
1.13426e-05
8.52998e-06
1.12973e-05
8.69916e-06
1.13307e-05
1.12226e-05
1.12931e-05
8.48008e-06
1.10256e-05
1.13093e-05
9.3326e-06
1.09998e-05
1.13934e-05
9.31293e-06
1.10111e-05
1.09016e-05
1.13797e-05
1.1403e-05
5.52072e-06
2.20648e-06
1.13971e-05
2.71469e-06
6.6265e-06
5.77775e-06
5.13132e-06
1.12499e-05
7.39835e-06
7.96568e-06
1.12307e-05
1.00844e-05
1.11064e-05
1.1339e-05
1.09135e-05
9.85346e-06
3.47644e-06
2.35229e-06
5.7081e-06
1.12535e-05
6.54423e-06
3.21332e-06
6.03518e-06
7.25606e-06
7.7172e-06
2.95064e-06
3.28751e-06
7.0569e-06
3.31338e-06
3.27877e-06
3.75281e-06
1.12117e-05
1.13178e-05
1.12987e-05
1.06137e-05
7.46381e-06
4.97478e-06
5.0118e-06
5.18981e-06
6.06441e-06
1.12919e-05
8.53312e-06
1.12932e-05
1.1373e-05
1.5651e-06
6.20884e-06
1.99054e-06
1.16153e-05
9.96371e-06
7.56347e-06
1.04686e-06
7.23599e-06
7.72807e-06
3.29313e-06
3.2686e-06
7.05147e-06
3.23644e-06
2.81988e-06
3.68632e-06
6.0236e-06
1.17895e-06
2.10133e-06
7.34354e-06
3.1608e-06
6.49107e-06
1.13527e-05
3.46376e-06
6.67248e-06
8.32303e-06
1.11913e-05
1.14001e-05
9.22661e-06
1.08046e-05
5.77516e-06
1.09763e-05
1.15116e-05
1.11277e-05
1.13737e-05
1.16234e-05
1.41945e-06
1.09888e-05
9.30945e-06
1.56909e-06
5.97582e-06
5.09507e-06
5.16507e-06
5.67543e-06
5.10997e-06
1.13852e-05
1.14627e-05
6.23772e-06
6.18155e-06
1.09166e-05
8.81475e-06
3.56638e-06
1.14719e-05
1.08426e-05
9.88104e-06
1.10181e-05
2.92967e-06
4.82669e-06
1.10267e-05
5.39789e-06
4.96396e-06
9.80925e-06
1.12828e-05
1.14853e-05
4.2718e-06
6.51415e-06
7.65169e-06
1.25857e-06
2.63273e-06
6.5422e-06
2.86909e-06
1.09276e-05
6.42366e-06
6.92578e-06
3.90265e-06
1.76592e-06
1.20693e-06
1.10239e-05
1.09396e-05
4.63661e-06
4.84431e-06
4.82198e-06
4.64099e-06
5.75156e-06
5.65389e-06
4.38688e-06
4.16766e-06
3.71875e-06
6.80169e-06
2.90939e-06
2.69883e-06
2.72532e-06
7.11607e-06
2.61213e-06
2.74807e-06
2.46764e-06
2.17826e-06
2.26989e-06
2.28874e-06
2.23252e-06
2.04267e-06
7.75137e-06
8.17989e-06
1.09949e-05
1.11027e-05
1.1261e-05
1.11375e-05
3.23068e-06
1.15559e-05
1.07917e-05
1.13309e-05
9.04557e-06
2.74045e-06
9.03154e-06
9.60009e-06
1.13735e-05
2.70111e-06
3.58254e-06
6.28458e-06
1.13497e-05
1.14592e-05
9.70921e-06
1.13377e-05
8.36624e-06
5.75468e-06
3.84866e-06
3.98356e-06
3.95507e-06
1.12745e-05
7.79854e-06
1.13208e-05
1.13744e-05
9.79895e-06
4.57593e-06
1.0983e-05
1.0466e-05
1.13906e-05
1.10503e-05
1.07538e-05
9.04728e-06
2.22515e-06
3.9316e-06
1.26756e-06
1.25072e-06
1.26355e-06
1.04403e-05
5.55307e-06
6.36538e-06
1.13462e-05
1.13376e-05
7.49244e-06
1.10893e-05
1.13008e-05
1.12683e-05
1.10402e-05
1.13363e-05
5.42752e-06
6.07476e-07
1.15155e-05
9.676e-06
5.42502e-06
7.70457e-06
1.13697e-05
1.10617e-05
1.126e-05
1.01547e-05
9.37442e-06
1.14861e-05
1.12948e-05
1.0574e-05
1.12671e-05
1.07836e-05
7.17575e-07
7.46919e-07
7.51982e-07
7.38631e-07
1.13196e-05
1.07742e-05
7.64593e-06
1.0587e-05
1.14007e-05
5.04114e-06
6.36384e-06
3.45156e-06
3.09824e-06
2.87898e-06
2.7973e-06
2.89812e-06
2.92182e-06
7.43154e-06
7.58891e-06
2.40488e-06
7.2405e-06
1.12418e-05
1.14111e-05
4.78879e-06
1.03397e-06
4.39473e-06
4.65838e-06
4.60332e-06
4.44944e-06
5.96337e-06
5.87364e-06
4.17014e-06
3.94184e-06
3.49955e-06
7.02432e-06
2.68601e-06
2.50558e-06
2.46414e-06
2.52649e-06
7.34287e-06
2.39373e-06
2.25649e-06
1.95775e-06
2.0663e-06
2.04776e-06
2.02417e-06
1.81918e-06
7.96014e-06
8.4328e-06
1.13823e-05
1.09377e-05
1.13819e-05
9.45118e-06
9.43886e-06
1.13795e-05
1.15291e-05
1.12291e-05
1.10618e-05
1.13983e-05
1.01143e-05
1.05127e-05
1.13453e-05
7.55536e-07
1.10535e-05
4.6688e-06
9.85372e-06
3.02588e-07
3.38155e-07
3.71769e-07
1.08859e-05
2.43537e-06
6.96391e-06
6.22447e-06
1.0941e-05
1.11814e-05
1.135e-05
1.10843e-05
4.71232e-06
2.07088e-06
1.13987e-05
9.6191e-06
1.07034e-05
5.49223e-06
6.63749e-06
5.30823e-06
1.14389e-05
9.63209e-06
9.08709e-06
8.63162e-07
1.01053e-05
6.43713e-06
6.73003e-06
1.13557e-05
1.14423e-05
9.38291e-06
1.09955e-05
2.2304e-06
6.95373e-06
6.2538e-06
9.05653e-06
5.98293e-06
5.16473e-06
4.95404e-06
4.89263e-06
1.10955e-05
1.0943e-05
7.14558e-06
1.11321e-05
9.21669e-06
1.13815e-05
1.13379e-05
1.15272e-05
7.86447e-06
2.4698e-06
8.49107e-06
1.09247e-05
5.14552e-06
1.07867e-05
1.13923e-05
1.09115e-05
1.02593e-05
1.15127e-05
1.13912e-05
1.12095e-05
2.70098e-06
1.12988e-05
1.02362e-05
1.04658e-05
5.60068e-06
1.14193e-05
1.14917e-05
1.13025e-05
9.75059e-06
1.07979e-05
1.13601e-05
1.13934e-05
1.1372e-05
2.09987e-07
1.9994e-07
2.11759e-07
1.03451e-05
1.11452e-05
1.11262e-05
1.15466e-05
1.14203e-05
4.58155e-06
4.26297e-06
1.13966e-05
1.13986e-05
1.14056e-05
9.52279e-06
1.11826e-05
1.1281e-05
7.39377e-06
7.23135e-06
3.05304e-06
3.02921e-06
3.03931e-06
3.58603e-06
6.17231e-06
3.26903e-06
2.96511e-06
9.2972e-06
1.15018e-05
1.03867e-05
1.1358e-05
1.13433e-05
6.79088e-06
1.14108e-05
1.1067e-05
8.38082e-06
1.05241e-05
1.14324e-05
1.11955e-05
1.14054e-05
9.93692e-06
1.13391e-05
1.13362e-05
1.12875e-05
1.09274e-05
1.13826e-05
6.62032e-06
5.37824e-06
1.05407e-05
1.14068e-05
1.13121e-05
1.13317e-05
1.14097e-05
1.11311e-05
9.71934e-06
5.13328e-06
1.47376e-06
1.12151e-05
9.92909e-06
1.61808e-06
5.71654e-06
1.43748e-06
6.91696e-06
3.54508e-06
3.5727e-06
7.35188e-06
6.73316e-06
3.2346e-06
3.50974e-06
3.99943e-06
1.11999e-05
8.32157e-06
1.09684e-05
5.34861e-07
1.14671e-05
1.13888e-05
1.09589e-05
1.13868e-05
1.14124e-05
5.66219e-07
1.13541e-05
1.13907e-05
7.81295e-06
1.62048e-06
8.25346e-06
1.02588e-05
1.1445e-05
9.71266e-06
1.06824e-05
1.13914e-05
1.09957e-05
7.36691e-07
1.11675e-06
1.14071e-05
1.13441e-05
1.01495e-05
1.07645e-05
1.14124e-05
1.01788e-05
1.12758e-05
1.13848e-05
1.10438e-05
5.39591e-06
1.72369e-06
3.27819e-06
4.04357e-06
5.85831e-06
1.13627e-05
2.19365e-07
2.13629e-07
2.62554e-07
1.02976e-05
1.14347e-05
1.15107e-05
6.70215e-06
1.1311e-05
7.96565e-06
2.48258e-07
2.76034e-07
1.1413e-05
8.92704e-07
2.49679e-06
7.01588e-06
3.47204e-06
6.19389e-06
7.16691e-06
1.10213e-05
5.998e-06
1.13914e-05
1.13847e-05
1.11213e-05
1.13928e-05
1.13097e-05
1.13876e-05
1.09539e-05
1.10625e-05
8.21002e-06
1.11918e-05
9.89977e-06
9.91022e-06
9.22763e-06
1.13659e-05
1.12483e-05
9.22548e-06
1.13028e-05
8.19439e-06
1.11001e-05
1.13658e-05
1.9262e-06
1.10476e-05
1.05248e-05
1.15578e-05
1.11688e-05
9.99987e-06
1.1106e-05
1.11143e-05
1.12926e-05
2.15785e-07
2.20369e-07
2.25748e-07
2.61096e-07
2.08987e-07
1.1367e-05
1.11679e-05
9.25081e-06
1.1476e-05
1.1385e-05
1.1404e-05
1.12555e-05
1.0987e-05
1.08257e-05
4.86665e-06
4.87417e-06
4.90244e-06
5.29962e-06
5.02063e-06
5.24808e-06
1.13953e-05
1.13585e-05
4.31264e-06
4.53628e-06
4.96522e-06
5.29524e-06
5.45406e-06
5.49568e-06
5.84436e-06
5.67602e-06
4.21035e-06
3.86407e-06
6.46095e-06
3.12098e-06
2.87458e-06
2.7902e-06
2.61448e-06
6.84531e-06
2.87191e-06
2.89693e-06
2.81546e-06
2.38678e-06
2.42687e-06
2.40529e-06
7.22451e-06
2.29459e-06
2.18447e-06
7.56955e-06
1.90281e-06
7.95981e-06
8.05899e-06
8.26301e-06
5.01663e-06
4.87886e-06
4.98788e-06
4.80259e-06
5.19809e-06
1.14349e-05
9.6033e-06
1.13947e-05
3.79396e-06
1.20731e-05
1.13859e-05
1.13856e-05
1.13239e-05
5.25229e-06
5.31199e-06
4.9494e-06
1.14074e-05
1.10672e-05
1.13712e-05
1.14105e-05
1.15005e-05
8.4832e-06
1.05412e-05
1.12327e-05
1.01843e-05
1.10209e-05
1.10615e-05
1.05068e-05
1.12936e-05
1.13946e-05
1.15719e-05
4.97512e-06
1.13488e-05
1.13063e-05
1.13031e-05
4.02342e-07
3.76812e-07
3.76327e-07
1.13939e-05
1.09208e-05
1.14117e-05
1.14056e-05
9.9755e-06
1.13747e-05
6.42251e-06
1.13629e-05
1.13131e-05
1.13503e-05
1.05783e-05
1.0806e-05
1.05456e-05
1.13846e-05
1.15393e-05
1.13337e-05
8.18769e-06
1.11053e-05
4.72693e-06
4.71841e-06
9.2782e-06
1.01564e-05
1.13731e-05
1.13083e-05
1.14337e-05
1.1527e-05
9.7196e-06
1.14106e-05
1.15558e-05
1.07122e-05
1.13806e-05
1.1157e-05
4.68957e-06
4.57208e-06
5.82064e-06
4.49636e-06
5.79376e-06
5.55548e-06
5.56665e-06
6.20859e-06
3.82149e-06
3.71333e-06
3.53947e-06
6.81191e-06
2.77073e-06
1.97561e-06
2.07628e-06
2.04922e-06
2.09836e-06
2.30034e-06
7.65261e-06
7.49134e-06
1.10185e-05
7.9805e-06
6.07777e-06
7.29389e-06
1.13853e-05
1.13838e-05
9.99022e-06
1.09759e-05
1.10258e-05
1.12932e-05
1.06154e-05
9.17755e-06
1.07939e-05
5.07696e-06
1.00102e-05
1.13697e-05
8.81962e-06
1.09095e-05
1.12938e-05
9.43315e-06
1.09754e-05
6.63633e-06
7.98549e-06
1.04491e-05
1.10199e-05
1.07789e-05
1.02774e-05
1.0073e-05
1.06089e-05
1.07773e-05
1.14032e-05
1.06929e-05
1.12758e-05
1.076e-05
1.12843e-05
1.07908e-05
1.08457e-05
7.94845e-06
5.57429e-06
1.12478e-05
1.04328e-05
1.10911e-05
1.13662e-05
7.68882e-06
9.87541e-06
8.14475e-06
1.14765e-05
1.08121e-05
9.17273e-06
1.0733e-05
1.09398e-05
1.13906e-05
1.11484e-05
9.73022e-06
1.14026e-05
9.53546e-06
5.36539e-06
5.80217e-06
5.84383e-06
3.71221e-06
4.01359e-06
3.39573e-06
6.25937e-06
3.32835e-06
3.28136e-06
6.90184e-06
3.45015e-06
3.41979e-06
7.06511e-06
7.41024e-06
7.00411e-06
2.52625e-06
1.13904e-05
1.11319e-05
1.08703e-05
1.075e-05
1.11189e-05
1.07227e-05
1.12189e-05
9.88305e-06
4.95698e-06
1.13787e-05
5.25291e-06
5.25305e-06
9.37785e-06
5.03751e-06
1.1393e-05
1.1381e-05
7.00222e-06
1.09047e-05
1.13452e-05
7.47156e-06
7.54737e-06
7.3042e-06
8.00501e-06
1.1264e-05
1.13719e-05
8.08819e-06
7.43993e-06
7.8901e-06
1.11548e-05
1.07932e-05
1.17593e-05
1.13948e-05
1.09628e-05
1.09754e-05
1.14179e-05
7.14232e-06
8.26568e-06
1.13543e-05
1.13856e-05
1.13381e-05
1.13635e-05
9.27154e-06
1.14771e-05
7.05447e-06
9.03281e-06
1.12991e-05
2.32592e-06
1.12612e-05
1.06373e-05
1.12947e-05
8.45825e-06
1.13555e-05
1.08097e-05
5.94052e-06
5.83585e-06
4.18294e-06
4.07074e-06
3.52041e-06
7.00507e-06
2.86395e-06
2.61955e-06
2.6211e-06
7.30644e-06
2.64382e-06
2.51826e-06
2.3784e-06
1.95366e-06
2.08098e-06
2.06432e-06
2.04787e-06
1.81001e-06
7.84225e-06
8.39644e-06
4.68755e-06
4.53495e-06
4.74315e-06
4.45996e-06
1.14168e-05
1.13271e-05
9.57483e-06
1.13886e-05
1.10814e-05
1.11201e-05
1.15375e-05
1.13693e-05
1.12288e-05
7.05897e-07
1.13414e-05
6.40202e-06
3.48027e-06
3.31608e-06
3.05808e-06
2.9937e-06
3.05509e-06
3.08168e-06
7.36564e-06
7.48809e-06
1.13863e-05
2.82757e-06
7.53944e-06
5.2273e-06
1.12891e-05
1.08943e-05
1.10171e-05
1.11419e-05
1.11992e-05
1.1242e-05
1.14685e-05
1.14065e-05
1.13312e-05
1.06842e-05
1.13158e-05
2.18017e-06
1.12518e-05
1.1398e-05
4.47393e-06
4.50473e-06
5.55082e-06
5.45942e-06
5.03327e-06
1.13445e-05
1.13831e-05
1.09753e-05
1.13917e-05
5.02922e-06
1.06867e-05
1.14031e-05
1.13036e-05
1.09889e-05
1.25249e-06
1.23839e-06
1.26143e-06
4.3818e-06
1.0999e-05
1.13408e-05
1.14232e-05
9.35626e-06
9.8802e-06
1.06145e-05
1.13873e-05
1.13884e-05
1.11157e-05
1.14285e-05
1.12801e-05
1.08422e-05
1.13964e-05
5.48384e-06
1.13548e-05
1.13764e-05
1.12363e-05
1.13527e-05
1.08195e-05
7.2152e-06
1.03042e-05
1.13884e-05
1.13664e-05
4.81693e-06
1.13703e-05
5.31199e-06
1.05752e-05
1.13253e-05
1.07124e-05
9.29264e-06
1.11422e-05
4.97473e-06
5.34425e-06
4.98698e-06
1.1096e-05
1.12919e-05
1.12873e-05
1.08487e-05
1.09197e-05
1.12039e-05
1.0971e-05
5.2357e-06
5.23007e-06
5.13457e-06
8.99302e-06
1.1491e-05
1.13018e-05
1.11369e-05
1.07085e-05
1.14018e-05
1.08191e-05
1.10854e-05
1.07813e-05
1.13817e-05
1.13097e-05
1.12509e-05
1.14e-05
1.11701e-05
1.11694e-05
1.05867e-05
1.12649e-05
1.12506e-05
5.23774e-06
5.23965e-06
8.45776e-06
1.10715e-05
1.14347e-05
1.092e-05
1.14021e-05
1.11234e-05
1.06202e-05
1.14124e-05
4.58881e-06
1.14398e-05
8.80905e-06
1.15428e-05
1.13932e-05
1.10166e-05
1.13607e-05
1.10269e-05
1.14851e-05
1.10346e-05
1.13541e-05
1.13309e-05
1.11499e-05
1.1367e-05
5.1291e-06
5.04492e-06
5.17263e-06
1.09044e-05
1.14414e-05
1.1306e-05
1.14248e-05
1.12934e-05
1.14054e-05
1.07416e-05
1.11963e-05
1.07853e-05
1.55077e-06
3.60071e-06
2.719e-06
6.38256e-06
1.13871e-05
1.13936e-05
1.12705e-05
1.14719e-05
1.09765e-05
1.13898e-05
1.13871e-05
1.13892e-05
1.12207e-05
8.25558e-06
1.1387e-05
1.13135e-05
1.13607e-05
1.53928e-06
1.52168e-06
1.55167e-06
8.17486e-06
1.13859e-05
1.13824e-05
1.13367e-05
1.13764e-05
1.13735e-05
1.07865e-05
1.13174e-05
1.13171e-05
1.06973e-05
1.12196e-05
5.06187e-06
1.10389e-05
1.13591e-05
1.13895e-05
4.83896e-06
1.13235e-05
1.09357e-05
1.14152e-05
1.1043e-05
1.02744e-05
1.13884e-05
1.11806e-05
1.14061e-05
1.1363e-05
1.14454e-05
1.1333e-05
1.02975e-05
1.13848e-05
1.13755e-05
1.13277e-05
1.12539e-05
1.13442e-05
1.09133e-05
1.13568e-05
1.08758e-05
1.13731e-05
4.96004e-06
3.89343e-06
5.82705e-06
2.02732e-06
2.8878e-06
2.75331e-06
6.54708e-06
1.27997e-06
6.57957e-06
7.67953e-06
1.13655e-05
1.13345e-05
1.14277e-05
1.13952e-05
1.03493e-05
1.06588e-05
1.12398e-05
1.13631e-05
1.13844e-05
1.09469e-05
1.13788e-05
1.01772e-05
1.11605e-05
1.12888e-05
3.44111e-06
3.46927e-06
5.87427e-06
7.07453e-06
5.44364e-06
3.92115e-06
3.42569e-06
6.85949e-06
2.24146e-06
7.48916e-06
3.11178e-06
1.29972e-06
1.46997e-06
1.1183e-05
1.13424e-05
1.13783e-05
1.13616e-05
1.12644e-05
1.11703e-05
1.09916e-05
1.01985e-05
1.06383e-05
8.98361e-06
1.11261e-05
1.13959e-05
1.16719e-05
1.13971e-05
1.06873e-05
1.12163e-05
1.14099e-05
1.12991e-05
1.02202e-05
4.16853e-07
1.13955e-05
7.20265e-06
1.13467e-05
1.06811e-05
8.88734e-06
1.13808e-05
1.13845e-05
1.14e-05
8.20238e-06
1.09546e-05
1.12939e-05
1.14504e-05
9.93552e-06
1.11521e-05
1.07251e-05
1.14011e-05
1.12259e-05
1.11343e-05
1.06165e-05
1.0787e-05
1.08412e-05
1.13965e-05
1.09494e-05
1.12034e-05
1.13644e-05
1.12995e-05
1.06752e-05
1.14233e-05
1.13864e-05
1.13678e-05
1.13531e-05
1.11526e-05
6.26069e-07
6.18936e-07
6.02749e-07
6.31312e-07
6.47532e-07
9.32979e-06
1.12778e-05
1.05715e-05
1.11962e-05
3.14502e-07
3.03013e-07
1.09287e-05
7.9901e-06
1.13889e-05
1.12005e-05
1.1302e-05
1.09618e-05
9.65725e-06
4.13963e-06
1.14025e-05
1.11508e-05
1.13522e-05
1.13925e-05
1.12342e-05
1.10656e-05
5.99435e-06
1.13653e-05
1.10289e-05
1.07451e-05
1.08744e-05
1.12849e-05
1.06782e-05
1.07636e-05
1.20246e-06
5.93591e-06
1.12278e-05
3.88358e-06
3.92565e-06
3.95655e-06
6.46966e-06
1.76709e-06
7.01269e-06
1.13924e-05
1.10787e-05
1.14381e-05
1.06931e-05
1.12926e-05
1.11164e-05
2.36102e-06
3.3567e-06
6.36823e-06
7.20417e-06
4.92723e-06
1.0741e-05
1.14636e-05
1.02714e-05
5.35173e-06
5.40554e-06
4.93694e-06
4.72922e-06
1.14031e-05
1.07938e-05
1.13736e-05
1.06762e-05
3.59236e-06
1.13836e-05
1.16325e-05
1.10186e-05
1.07498e-05
1.13728e-05
1.07298e-05
3.12068e-07
1.09809e-05
1.13217e-05
1.13887e-05
1.13653e-05
1.12716e-05
1.13194e-05
4.98066e-06
1.06818e-05
1.13722e-05
1.29468e-06
1.12715e-05
1.11731e-05
2.88448e-07
2.61457e-07
2.75573e-07
2.72614e-07
2.6905e-07
1.13921e-05
1.13829e-05
1.13676e-05
6.89214e-06
1.12322e-05
1.08486e-05
1.07633e-05
1.0941e-05
1.1275e-05
1.13361e-05
1.13567e-05
1.14046e-05
1.13788e-05
1.1457e-05
1.13943e-05
1.1368e-05
1.08563e-05
1.1338e-05
1.09953e-05
1.13825e-05
1.00559e-05
8.59597e-06
1.14365e-05
1.08933e-05
8.58177e-06
1.13663e-05
7.37032e-06
5.16037e-06
1.13988e-05
1.13872e-05
1.11559e-05
3.69849e-06
8.57476e-06
1.13909e-05
1.09396e-05
1.06201e-05
1.12736e-05
1.12217e-05
1.13177e-05
1.13892e-05
1.09662e-05
1.13902e-05
1.13384e-05
1.1333e-05
1.13913e-05
1.14713e-05
1.14028e-05
4.85597e-06
1.12165e-05
1.08e-05
1.13891e-05
1.10127e-05
1.12887e-05
1.09611e-05
1.13643e-05
1.04275e-05
1.08468e-05
4.91043e-06
1.13228e-05
1.06787e-05
1.15461e-05
1.13903e-05
1.09171e-05
1.1238e-05
1.1408e-05
1.12838e-05
1.02003e-05
1.13031e-05
1.13143e-05
1.09796e-05
5.36368e-06
1.13891e-05
1.13233e-05
1.13897e-05
1.13457e-05
1.13815e-05
1.1393e-05
1.13764e-05
1.12649e-05
3.87926e-06
6.09338e-06
3.01964e-06
1.83297e-06
7.33954e-06
1.1139e-05
9.68807e-06
9.45067e-06
1.07322e-05
1.08153e-05
1.13858e-05
1.1369e-05
1.04889e-05
1.12967e-05
4.73422e-06
4.77481e-06
1.12391e-05
2.22447e-07
2.33094e-07
1.13779e-05
5.29491e-06
1.12815e-05
1.10048e-05
1.13849e-05
1.13034e-05
1.13725e-05
7.96399e-06
1.1384e-05
1.1334e-05
1.13416e-05
6.14035e-06
1.19779e-05
1.13834e-05
1.10583e-05
1.11335e-05
1.13241e-05
1.12325e-05
8.82272e-06
1.09163e-05
1.09759e-05
1.13887e-05
8.65924e-06
9.00648e-06
1.06838e-05
1.13295e-05
1.13846e-05
1.12777e-05
1.0886e-05
1.11654e-05
1.07764e-05
1.13835e-05
1.09076e-05
1.06179e-05
9.03807e-06
3.67492e-07
1.10666e-05
1.13884e-05
9.05739e-06
1.13855e-05
1.10261e-05
1.12387e-05
1.06193e-05
1.0915e-05
1.12633e-05
1.13861e-05
1.12577e-05
8.72266e-06
1.06347e-05
9.9898e-06
1.13805e-05
1.06148e-05
5.17496e-06
1.0955e-05
1.02314e-05
1.07607e-05
1.13839e-05
1.1396e-05
1.12041e-06
1.02738e-06
1.03479e-06
6.49236e-06
1.13163e-05
6.70385e-06
1.14059e-05
4.55287e-06
1.15275e-05
1.08841e-05
1.12161e-05
1.1273e-05
1.1323e-05
1.07567e-05
9.02081e-06
1.09388e-05
1.09087e-05
6.02568e-06
1.12147e-05
1.13957e-05
1.13787e-05
1.18011e-05
1.12893e-05
1.1388e-05
6.85709e-06
1.16204e-05
1.12357e-05
1.14481e-05
1.14105e-05
1.1217e-05
5.39135e-06
7.8981e-06
1.07893e-05
1.1188e-05
1.06826e-05
1.128e-05
9.9767e-06
1.11708e-05
1.1202e-05
1.13952e-05
1.15196e-05
1.09673e-05
1.02922e-05
1.13961e-05
1.13833e-05
1.10156e-05
1.13846e-05
8.06312e-06
1.13676e-05
1.13557e-05
1.06557e-05
1.12573e-05
1.0736e-05
1.06816e-05
1.09409e-05
1.13689e-05
1.11819e-05
1.10853e-05
1.13843e-05
1.13953e-05
8.56548e-06
1.13885e-05
9.08155e-06
1.13903e-05
1.11561e-05
1.10705e-05
1.14747e-05
1.09856e-05
1.13977e-05
1.12901e-05
1.1257e-05
1.13907e-05
1.10122e-05
1.08298e-05
1.10677e-05
1.14049e-05
1.08128e-05
1.13891e-05
1.07233e-05
8.67731e-06
1.1389e-05
8.57617e-06
1.15793e-05
1.1393e-05
1.13841e-05
1.13571e-05
1.10925e-05
1.13745e-05
1.14991e-05
1.10676e-05
1.13733e-05
1.86505e-06
1.84827e-06
1.82639e-06
8.0172e-06
1.13845e-05
1.13688e-05
1.10305e-05
1.05452e-05
1.13537e-05
1.08361e-05
1.14751e-05
1.14498e-05
1.19534e-05
1.20398e-05
1.16354e-05
1.13996e-05
1.09525e-05
8.3637e-06
1.14525e-05
1.09935e-05
1.10142e-05
9.14369e-06
1.14448e-05
1.13957e-05
1.14038e-05
1.13518e-05
1.13085e-05
1.11967e-05
1.1332e-05
1.13849e-05
1.13692e-05
1.13719e-05
6.12105e-06
8.19914e-06
1.1385e-05
8.14314e-06
7.7028e-06
1.06673e-05
8.33561e-06
1.13967e-05
1.08307e-05
1.11617e-05
1.13814e-05
1.14267e-05
1.13458e-05
1.11591e-05
7.67029e-06
1.13764e-05
1.11995e-05
7.12757e-06
1.14083e-05
1.12442e-05
1.13131e-05
1.13439e-05
1.13807e-05
1.11066e-05
1.09871e-05
1.1538e-05
1.11471e-05
1.11117e-05
4.22291e-06
1.09904e-05
1.13685e-05
1.13901e-05
1.13697e-05
1.0918e-05
1.12808e-05
7.81469e-07
1.15883e-05
2.06424e-06
1.13625e-05
1.13691e-05
1.13603e-05
1.13953e-05
1.1389e-05
1.12638e-05
1.13473e-05
1.07262e-05
1.14011e-05
3.74788e-06
1.41707e-06
3.48226e-06
1.7068e-06
2.59203e-06
6.4956e-06
6.22647e-06
2.87836e-06
1.13904e-05
1.13776e-05
1.13934e-05
1.13772e-05
1.13828e-05
6.84969e-06
1.06325e-05
1.13697e-05
1.10024e-05
1.09735e-05
1.09672e-05
7.01242e-06
1.1388e-05
1.11285e-05
1.14034e-05
1.12725e-05
1.1362e-05
1.14679e-05
1.08907e-05
1.13354e-05
1.11155e-05
1.13888e-05
1.1264e-05
1.03046e-05
1.13683e-05
1.14128e-05
1.13941e-05
1.12425e-05
1.14465e-05
1.13887e-05
1.13703e-05
1.13783e-05
1.11048e-05
1.13885e-05
1.12131e-05
4.34307e-06
1.1366e-05
1.14399e-05
1.13717e-05
1.12508e-05
7.49593e-06
1.10157e-05
2.97234e-06
1.12513e-05
1.10905e-05
1.13517e-05
1.14014e-05
1.12152e-06
1.07465e-05
1.13978e-05
1.1439e-05
1.13961e-05
1.05532e-05
1.10708e-05
1.1352e-05
1.13434e-05
1.08264e-05
1.13827e-05
1.10101e-05
1.13893e-05
1.03735e-05
1.13699e-05
1.11452e-05
1.11346e-05
1.13735e-05
1.08458e-05
1.11101e-05
1.08505e-05
1.10438e-05
1.13841e-05
1.11269e-05
1.1128e-05
5.42908e-06
1.14245e-05
1.12515e-05
1.13705e-05
1.12735e-05
1.13895e-05
1.10031e-05
1.02504e-05
3.98282e-06
1.13823e-05
1.13973e-05
9.27601e-06
9.03016e-06
1.14641e-05
1.13787e-05
1.13737e-05
1.13967e-05
1.1656e-05
1.08576e-06
1.13149e-06
1.11882e-06
1.13964e-06
1.41723e-06
1.39027e-06
1.40633e-06
3.75381e-06
1.62724e-06
7.1279e-06
3.79614e-06
3.82628e-06
6.46602e-06
5.20836e-06
4.24828e-06
1.7352e-06
1.13482e-05
1.15212e-05
1.08611e-05
1.07021e-05
1.13922e-05
1.05783e-05
3.46304e-06
2.46321e-06
1.52357e-06
6.09616e-06
2.31169e-06
6.88693e-06
1.12789e-05
6.72337e-06
3.3972e-06
1.77299e-06
1.091e-05
8.56749e-06
5.27275e-06
1.10478e-05
1.13853e-05
1.13896e-05
7.78754e-06
1.12376e-05
9.85964e-07
1.02666e-06
1.0152e-06
1.03395e-06
1.13351e-05
1.13914e-05
1.09428e-05
1.14039e-05
1.11623e-05
1.13664e-05
1.11625e-05
4.94352e-06
8.30716e-06
5.60842e-06
3.62976e-06
3.65752e-06
3.60832e-06
4.06948e-06
6.74598e-06
3.37358e-06
6.5778e-06
7.20886e-06
2.50417e-06
1.54834e-06
1.3129e-06
1.13592e-05
1.11852e-05
1.07233e-05
1.13829e-05
1.13216e-05
9.04254e-06
1.08272e-05
1.12865e-05
3.62888e-06
6.01909e-06
6.8148e-06
2.65215e-06
2.52283e-06
1.04432e-06
1.13689e-05
1.09796e-05
1.11387e-05
1.14095e-05
1.14462e-05
1.13763e-05
1.13888e-05
1.08369e-05
7.29e-06
1.13652e-05
7.43122e-06
1.13634e-05
1.11262e-05
1.13673e-05
1.14057e-05
1.11366e-05
1.14028e-05
1.1402e-05
1.13213e-05
1.10657e-05
1.13895e-05
1.08347e-05
1.13187e-05
1.14897e-05
1.13871e-05
1.1349e-05
1.13803e-05
1.13948e-05
1.13935e-05
1.11114e-05
7.73487e-06
1.08448e-05
1.13705e-05
1.07982e-05
1.08589e-05
1.13918e-05
1.10967e-05
1.12437e-05
7.81892e-06
9.9181e-06
1.14082e-05
1.13767e-05
1.11892e-05
1.13871e-05
1.12045e-05
1.1379e-05
1.1387e-05
1.13852e-05
1.11324e-05
1.11957e-05
1.07126e-05
7.51125e-07
7.75028e-07
7.8735e-07
7.83335e-07
1.09373e-05
1.13538e-05
1.12226e-05
1.78645e-06
1.13624e-05
8.47992e-06
1.14365e-05
1.14025e-05
1.10889e-05
1.13914e-05
1.13899e-05
1.11294e-05
1.13762e-05
3.0891e-06
1.11456e-05
1.13836e-05
1.13916e-05
1.07329e-05
1.10238e-05
1.13955e-05
1.12394e-05
1.08425e-05
1.13772e-05
1.13947e-05
1.11096e-05
1.1353e-05
1.1401e-05
1.13815e-05
1.0956e-05
1.13659e-05
1.13941e-05
1.13772e-05
1.08016e-05
1.12859e-05
1.11751e-05
1.09436e-05
1.64309e-06
1.62295e-06
1.65565e-06
8.0686e-06
1.13867e-05
1.13878e-05
1.13793e-05
1.13792e-05
1.15259e-05
1.13724e-05
1.0667e-05
1.12339e-05
1.13703e-05
1.13996e-05
1.14269e-05
1.13761e-05
1.13837e-05
8.49267e-06
1.13939e-05
1.08567e-05
1.1403e-05
1.09266e-05
1.04719e-05
1.13939e-05
1.13001e-05
1.10735e-05
1.14017e-05
1.13592e-05
1.13879e-05
1.10278e-05
1.13931e-05
9.00309e-06
1.13535e-05
1.13904e-05
1.14311e-05
1.13907e-05
1.13948e-05
1.13348e-05
1.13803e-05
1.10618e-05
1.14066e-05
1.13809e-05
1.13822e-05
1.1233e-05
1.13589e-05
1.13867e-05
1.14617e-05
1.10573e-05
1.0663e-05
1.11508e-05
1.11459e-05
1.1377e-05
1.14087e-05
1.13675e-05
1.13593e-05
1.13247e-05
2.11311e-07
1.57809e-07
2.14033e-07
2.18819e-07
2.18528e-07
1.1388e-05
1.13919e-05
1.13769e-05
1.14708e-05
1.13723e-05
1.13748e-05
1.13948e-05
1.11386e-05
1.12903e-05
1.13824e-05
1.13933e-05
1.13807e-05
1.1569e-05
1.13616e-05
1.10612e-05
1.13569e-05
1.1402e-05
1.14487e-05
7.97756e-06
1.13776e-05
1.14112e-05
1.13818e-05
8.64752e-06
1.13526e-05
1.14004e-05
9.91461e-06
1.10141e-05
1.03995e-05
1.10868e-05
1.0464e-05
1.1055e-05
1.14749e-05
1.13872e-05
1.11865e-05
1.13782e-05
1.12041e-05
9.70793e-06
1.13294e-05
1.13688e-05
1.13886e-05
1.07795e-05
1.1477e-05
1.13737e-05
1.13969e-05
1.08068e-05
1.10801e-05
1.13562e-05
1.09012e-05
1.13981e-05
1.12158e-05
1.15576e-05
1.12981e-05
8.62551e-06
1.13859e-05
1.11791e-05
1.09615e-05
1.07934e-05
1.13648e-05
1.05323e-05
1.13745e-05
1.16143e-05
1.11145e-05
1.1375e-05
1.13959e-05
7.21979e-06
1.13887e-05
1.12952e-05
1.14039e-05
1.13944e-05
1.13053e-05
8.95013e-06
1.14589e-05
1.13889e-05
1.13768e-05
1.1385e-05
1.13816e-05
8.73189e-06
1.13728e-05
1.13796e-05
1.13865e-05
8.13815e-06
1.1379e-05
1.13895e-05
1.13892e-05
1.13899e-05
1.1535e-05
1.12702e-05
1.13885e-05
1.13734e-05
1.14057e-05
8.71345e-06
1.15902e-05
1.13573e-05
1.13897e-05
1.1117e-05
1.10576e-05
1.13796e-05
1.15968e-05
1.06223e-05
1.10653e-05
7.62329e-06
8.53626e-06
1.13829e-05
1.13813e-05
5.97619e-07
1.13695e-05
8.09104e-06
1.13883e-05
1.13947e-05
7.60514e-06
7.14403e-06
6.53207e-06
6.68575e-06
7.54229e-06
6.49623e-06
5.4965e-06
4.28531e-06
7.47854e-06
2.8166e-06
2.3277e-06
2.68343e-06
3.4102e-06
3.43793e-06
7.76672e-06
3.91072e-06
2.83551e-06
6.25261e-06
7.11651e-06
3.76402e-06
5.43548e-06
4.5249e-06
4.52453e-06
8.43204e-06
7.24017e-06
2.60725e-06
7.06801e-06
4.2397e-06
5.96361e-06
2.3618e-06
5.99086e-06
5.32527e-06
1.75894e-06
4.20352e-06
5.89024e-06
6.01762e-06
2.29563e-06
7.76008e-06
2.20831e-06
6.00884e-06
2.39211e-06
2.37134e-06
6.3049e-06
6.66417e-06
2.39196e-06
3.27634e-06
3.3036e-06
7.15585e-06
5.55644e-06
7.19557e-06
6.04999e-06
7.4946e-06
3.38182e-06
5.50443e-06
3.03025e-06
1.80423e-06
5.67382e-06
4.92021e-06
6.47249e-06
3.2924e-06
2.98552e-06
8.00493e-06
5.4442e-06
3.65469e-06
4.14206e-06
3.4319e-06
7.26012e-06
1.63881e-06
2.95992e-06
2.1696e-06
4.38098e-06
5.58037e-06
4.69119e-06
7.53706e-06
4.44185e-06
8.35828e-06
1.04158e-06
4.482e-06
8.03939e-06
4.70153e-06
2.45776e-06
2.39845e-06
2.41863e-06
7.86501e-06
7.35352e-06
3.39387e-06
7.48949e-06
2.65407e-06
8.10652e-06
3.55218e-06
3.653e-06
3.08133e-06
2.21123e-06
2.71086e-06
2.27152e-06
3.65805e-06
2.69453e-06
5.91492e-06
2.42389e-06
1.40038e-06
3.21961e-06
6.71692e-06
7.77578e-06
3.1056e-06
1.15329e-06
3.08171e-06
6.82275e-06
5.88951e-06
6.28736e-06
3.88418e-06
4.7538e-06
6.17158e-06
1.56372e-06
3.44828e-06
4.01232e-06
4.30316e-06
6.03012e-06
2.72558e-06
3.86411e-06
1.94379e-06
2.20023e-06
6.25999e-06
4.12806e-06
1.92633e-06
1.24751e-06
6.74058e-06
6.13205e-06
6.09621e-06
1.45773e-06
4.4724e-06
1.67018e-06
6.42979e-06
3.5285e-06
7.21121e-06
1.42273e-06
6.38746e-06
2.72322e-06
6.58853e-06
5.73234e-06
6.81912e-06
5.71399e-06
6.12829e-06
5.98741e-06
2.36017e-06
4.65043e-06
3.24311e-06
8.00581e-06
2.16121e-06
6.1744e-06
2.46977e-06
6.0025e-06
4.56087e-06
2.78064e-06
5.61984e-06
2.4594e-06
4.74495e-06
4.31442e-06
4.30878e-06
5.57859e-06
4.03796e-06
3.32991e-06
1.75651e-06
3.01361e-06
5.64136e-06
6.9703e-06
4.44438e-06
4.15524e-06
6.11135e-06
1.56677e-06
5.81687e-06
2.75785e-06
8.26275e-06
6.41121e-06
9.54903e-06
1.10448e-05
1.28849e-06
6.77292e-06
3.25153e-06
5.8143e-06
6.38944e-06
1.15384e-05
7.60078e-06
6.21412e-06
2.07273e-06
3.46071e-06
4.71355e-06
8.80061e-06
9.34649e-06
7.19256e-06
3.27836e-06
3.12696e-06
4.71235e-06
1.87921e-06
3.08189e-06
3.1034e-06
3.43572e-06
2.97189e-06
6.89018e-06
6.96804e-06
8.84994e-06
7.7096e-06
1.44266e-06
7.61919e-06
2.11451e-06
7.16936e-06
5.2233e-06
6.6971e-06
6.18462e-06
6.74762e-06
2.0882e-06
2.82667e-06
2.75254e-06
3.73339e-06
7.42468e-06
3.0558e-06
2.05868e-06
8.92256e-06
5.86408e-06
4.16999e-06
2.13369e-06
2.13121e-06
4.24676e-06
4.22806e-06
3.04911e-06
2.47894e-06
7.34456e-06
5.73609e-06
8.35672e-06
1.9089e-06
4.21297e-06
2.231e-06
4.01385e-06
2.36607e-06
8.39412e-06
4.0547e-06
3.53487e-06
6.05683e-06
4.34992e-06
6.33561e-06
2.61466e-06
1.26185e-06
1.34142e-06
4.55588e-06
7.25345e-06
5.67075e-06
6.23938e-06
2.61004e-06
6.26918e-06
5.82433e-06
4.28824e-06
3.6026e-06
6.00306e-06
5.70263e-06
4.17122e-06
1.56077e-06
3.22824e-06
5.82101e-06
3.02803e-06
4.41738e-06
1.96974e-06
3.19466e-06
6.8594e-06
5.41155e-06
6.70719e-06
2.9309e-06
1.23975e-06
2.61824e-06
4.48679e-06
8.66336e-06
2.17656e-06
2.88909e-06
5.62007e-06
3.28564e-06
6.40063e-06
3.49133e-06
5.53751e-06
2.77696e-06
7.80899e-06
1.47876e-06
2.60031e-06
3.70021e-06
6.36995e-06
4.31741e-06
2.83816e-06
2.80135e-06
3.19031e-06
7.98978e-06