/*--------------------------------*- C++ -*----------------------------------*\
  =========                 |
  \\      /  F ield         | OpenFOAM: The Open Source CFD Toolbox
   \\    /   O peration     | Website:  https://openfoam.org
    \\  /    A nd           | Version:  8
     \\/     M anipulation  |
\*---------------------------------------------------------------------------*/
FoamFile
{
    version     2.0;
    format      ascii;
    class       surfaceScalarField;
    location    "4.4";
    object      phi;
}
// * * * * * * * * * * * * * * * * * * * * * * * * * * * * * * * * * * * * * //

dimensions      [0 3 -1 0 0 0 0];

internalField   nonuniform List<scalar> 
11624
(
-7.78953e-09
8.03878e-09
7.9178e-11
-3.28425e-10
-7.19291e-09
-2.05735e-10
-3.90887e-10
-2.11731e-09
1.51214e-10
1.86334e-09
1.02751e-10
8.65071e-09
-7.58433e-09
1.90061e-09
-2.96699e-09
-6.0968e-09
5.76465e-09
-2.32899e-12
3.34483e-10
-5.89113e-09
4.20542e-09
1.3246e-09
3.61115e-10
-1.38993e-09
-2.98968e-10
-2.9602e-09
4.6491e-09
-9.39752e-10
2.3949e-09
3.10997e-09
-4.56512e-09
2.99074e-09
-2.3262e-09
-3.3144e-09
2.64986e-09
-3.29264e-09
-1.6071e-09
2.59533e-09
2.30442e-09
5.02633e-09
-4.659e-09
-8.38695e-11
-2.83459e-10
1.96933e-09
4.73342e-09
-2.0061e-09
-4.69664e-09
-2.77425e-09
-4.25796e-09
2.28604e-09
4.74617e-09
-3.96581e-09
5.10502e-09
-1.14285e-09
3.64584e-12
-1.57714e-09
4.3731e-09
-3.89932e-09
1.10335e-09
-3.94676e-09
2.78082e-09
-2.68922e-09
3.85517e-09
4.14042e-09
-4.13053e-09
-1.94173e-11
9.52701e-12
-3.65164e-09
4.7315e-09
-1.13411e-09
5.42563e-11
-2.75114e-09
3.8312e-09
-4.48119e-09
3.40113e-09
-3.2013e-09
-1.57255e-09
1.9322e-09
2.84165e-09
3.32636e-09
-3.76318e-09
2.69098e-10
1.67714e-10
-3.60116e-09
4.42152e-09
-3.75997e-10
-4.44362e-10
5.26373e-09
-5.33339e-09
9.22583e-11
-2.26064e-11
6.25255e-09
-2.06527e-09
1.05471e-09
-5.24198e-09
4.95938e-09
-4.65418e-09
-2.88784e-10
-1.64177e-11
-4.80734e-09
1.40253e-09
4.26205e-09
-8.57235e-10
2.44233e-09
-3.95817e-09
-3.378e-09
4.89384e-09
2.53327e-09
-2.36027e-09
-3.12762e-09
2.95462e-09
-2.72974e-09
3.36619e-09
-4.23574e-09
3.5993e-09
-5.80758e-09
4.51672e-09
-3.94483e-09
5.23568e-09
5.22922e-09
-3.44551e-10
7.47045e-11
5.15262e-09
-1.81595e-10
2.92713e-10
-5.4247e-09
5.00144e-09
5.34032e-10
-1.10775e-10
-5.45071e-09
4.59176e-09
9.96792e-10
-1.37843e-10
5.42669e-09
-2.37774e-10
4.03087e-11
-4.17057e-10
1.86872e-11
-4.97111e-09
5.873e-10
-2.70368e-10
-7.39169e-10
4.84557e-09
-5.42522e-09
1.31882e-09
-3.61047e-09
3.27855e-09
-7.01796e-10
2.37352e-10
-3.90641e-09
1.74223e-09
-1.21978e-09
3.38397e-09
2.59532e-09
-4.13805e-09
-2.41672e-09
3.95945e-09
1.37867e-10
6.39453e-11
7.83697e-09
1.10396e-10
-4.8301e-09
-6.13684e-10
5.40325e-09
-3.50283e-10
-6.14308e-09
1.09011e-09
2.05556e-09
-1.80204e-09
-2.87567e-09
2.62215e-09
-9.15975e-09
-2.1205e-10
2.17889e-09
3.18661e-09
9.03569e-10
-1.71347e-09
-2.3767e-09
8.54668e-09
-7.00211e-09
4.89074e-09
-6.43531e-09
4.23021e-09
-3.81119e-09
3.00114e-09
-3.42017e-09
-1.85604e-09
-5.66998e-10
3.05726e-10
3.85285e-09
-4.19072e-09
-4.97118e-09
5.30905e-09
1.07068e-09
-1.03917e-09
3.55237e-09
-3.58389e-09
-3.58253e-09
-1.07652e-09
4.67171e-09
-1.26648e-11
3.20783e-09
5.05663e-09
-5.3887e-09
-2.87576e-09
6.68554e-10
-4.53835e-10
2.47413e-10
-4.62132e-10
1.93775e-09
-8.43465e-10
5.06925e-09
-6.16354e-09
-2.1141e-09
2.56468e-09
8.20012e-09
-5.31857e-09
1.61632e-09
-1.46512e-10
3.84876e-09
3.37429e-09
-3.6925e-09
8.22324e-10
-5.04109e-10
-2.96938e-09
3.8041e-09
1.78976e-09
-2.62448e-09
4.60338e-09
-3.98027e-09
-2.81981e-09
2.19671e-09
-6.16453e-10
1.5123e-09
-5.07454e-09
4.17869e-09
-7.05916e-09
5.96115e-09
-3.13741e-09
4.23542e-09
1.57605e-09
-7.31388e-10
-3.77239e-09
2.92773e-09
-2.22828e-10
2.41413e-10
-2.38609e-10
2.20024e-10
-1.64735e-09
4.30918e-09
-3.60159e-09
2.3797e-09
-3.81931e-09
3.37692e-09
-1.93732e-09
-4.65301e-09
2.9242e-12
3.91092e-09
2.19123e-10
2.30547e-10
-2.26454e-10
-2.23217e-10
2.81747e-09
7.25915e-09
-1.0663e-08
5.86385e-10
2.77134e-09
-2.82472e-09
-3.38403e-09
3.43741e-09
1.67481e-09
4.8e-09
-1.32545e-09
-5.14936e-09
3.85682e-09
-3.48608e-09
-3.5173e-09
3.14655e-09
-1.02616e-09
6.91106e-11
1.4857e-09
-5.28645e-10
-4.66158e-09
-2.63833e-09
3.04647e-09
4.25344e-09
-2.71615e-09
-3.36124e-09
3.305e-09
2.77239e-09
-4.84764e-09
4.59478e-09
-6.32186e-10
8.85041e-10
-5.07259e-09
-7.8055e-09
5.29376e-09
-2.89426e-09
2.76506e-09
3.51815e-09
-3.38896e-09
-1.48733e-09
3.21591e-09
-4.15195e-09
2.42336e-09
-3.19194e-09
7.19662e-10
-5.67641e-09
-2.40825e-09
5.12206e-10
-4.48611e-09
-2.3558e-09
4.98614e-10
-4.40604e-09
-2.29671e-09
4.84137e-10
-4.30801e-09
-2.77582e-09
6.06587e-10
-5.06375e-09
5.02159e-09
-5.17914e-09
3.73212e-10
-2.15656e-10
-3.43454e-09
7.90029e-10
-6.25836e-09
-2.41034e-09
5.14165e-10
-4.66481e-09
-2.54095e-09
5.44493e-10
-4.83077e-09
-2.89382e-09
6.36653e-10
-5.39407e-09
-2.19243e-09
4.56882e-10
-4.26315e-09
-2.27189e-10
2.61492e-10
1.95588e-10
-2.29891e-10
5.17172e-09
5.69941e-09
-8.27926e-09
-2.59187e-09
-4.08876e-09
2.69682e-09
3.77164e-09
-5.69261e-09
-5.14578e-09
4.30154e-09
6.53685e-09
-2.32683e-10
2.43229e-10
-2.39495e-10
2.28949e-10
9.91066e-10
-1.05367e-09
4.56678e-09
-4.50417e-09
4.66399e-09
6.50141e-09
-6.91811e-09
-4.24729e-09
6.28856e-09
7.73587e-09
-9.72138e-09
-4.30306e-09
-1.05553e-09
4.18632e-10
-4.18967e-09
4.82657e-09
2.30511e-09
2.93757e-09
-2.43028e-09
-2.81241e-09
-4.32818e-09
7.71211e-12
4.05851e-09
2.61963e-10
-3.68789e-09
2.32604e-09
-3.07743e-09
4.43928e-09
-3.49674e-09
-3.03219e-09
2.84103e-09
-2.29874e-09
1.77841e-09
3.30476e-09
-2.78442e-09
-2.35153e-09
3.04825e-09
-2.60594e-09
1.90921e-09
7.09141e-11
3.68071e-09
3.8879e-10
2.34713e-09
3.2257e-09
-4.76157e-09
-8.11266e-10
-3.76319e-10
1.47969e-09
-1.58249e-09
4.79117e-10
3.87144e-09
5.36542e-10
-3.67925e-09
-7.28732e-10
-8.28882e-11
-4.30831e-09
-5.79908e-10
3.23693e-09
-3.82673e-09
3.32685e-09
-2.73706e-09
-2.72345e-09
4.41516e-10
4.71306e-09
-2.43113e-09
2.28786e-09
8.56526e-09
-1.39958e-09
-9.45354e-09
3.31881e-09
7.90068e-09
-8.93163e-09
5.58208e-09
7.35496e-10
-1.29599e-09
-2.33202e-10
5.30717e-10
8.26775e-09
-3.38605e-09
-3.08127e-09
2.50916e-09
-1.09545e-09
6.85894e-10
1.25693e-09
-8.4738e-10
5.56222e-10
-1.19468e-10
4.97662e-09
-5.41338e-09
-4.54048e-10
7.03465e-10
-2.1917e-09
1.94228e-09
1.43598e-09
-3.83064e-09
3.71419e-09
-1.31953e-09
1.43182e-09
-1.22101e-09
2.77993e-09
2.80336e-09
-3.42582e-09
3.61631e-09
-2.99386e-09
4.51693e-09
9.03957e-09
-2.77131e-09
-1.07852e-08
-2.04456e-09
-2.43718e-09
2.98453e-09
1.49721e-09
1.16623e-09
4.1999e-09
-2.84393e-09
-2.5222e-09
1.15586e-10
-1.96691e-10
-1.87815e-09
1.95926e-09
3.01202e-09
3.54034e-09
-3.95705e-09
3.95601e-10
-9.00292e-10
5.22056e-09
-4.71587e-09
2.70834e-10
2.99906e-09
3.68787e-10
-3.63868e-09
2.97108e-09
-2.68755e-09
-2.63506e-09
-6.14202e-09
-5.67635e-09
6.12576e-09
9.07465e-11
1.52939e-10
-5.19735e-11
-1.91712e-10
7.52048e-09
-1.45768e-09
-5.99284e-10
-5.46351e-09
-5.24092e-09
-1.08533e-09
7.01649e-10
5.6246e-09
4.10729e-09
-4.66767e-09
-3.81554e-09
4.37593e-09
2.19985e-09
-4.0316e-09
-3.01589e-09
3.82461e-09
-4.04454e-09
-1.2674e-09
3.91636e-09
3.28133e-09
-3.96076e-09
4.44121e-09
-3.54191e-09
-6.09211e-09
5.19281e-09
1.71429e-09
-3.88826e-09
3.60995e-09
-4.97819e-09
-3.07231e-09
2.24292e-09
-2.19269e-09
7.86257e-10
1.48269e-09
-7.62579e-11
-3.69228e-09
-2.5026e-09
4.30127e-09
1.8936e-09
2.37696e-09
-3.24973e-09
3.47168e-09
-2.59891e-09
2.46711e-10
-2.50521e-10
2.25988e-10
-2.22178e-10
-4.08288e-09
4.02575e-09
-3.76338e-09
3.82052e-09
7.69797e-09
1.46648e-09
-2.82591e-09
-6.33855e-09
-3.22082e-09
2.28114e-09
-3.38368e-09
4.32336e-09
3.20412e-09
-7.59306e-09
9.05293e-09
1.59223e-10
-5.77828e-10
-2.45221e-09
2.87082e-09
-3.0088e-10
4.28495e-09
-4.20847e-09
2.24399e-10
5.33734e-09
-4.29287e-09
-7.23504e-10
-3.20967e-10
-1.59526e-09
-3.99787e-09
2.14925e-09
3.44387e-09
-6.33441e-09
-6.57411e-10
6.99182e-09
-1.62593e-09
2.7125e-10
1.48204e-09
-1.27365e-10
-8.01725e-10
-4.11345e-09
6.7501e-10
4.24016e-09
-3.78823e-09
-4.2588e-09
4.4275e-09
3.61953e-09
-4.2307e-09
-4.42849e-09
2.78382e-09
5.87537e-09
5.27471e-09
-5.92117e-09
7.60798e-09
-6.96152e-09
1.06783e-09
-4.73484e-09
4.65807e-09
4.67535e-09
-4.23949e-09
4.40972e-09
-2.39303e-10
-2.27439e-10
2.37342e-10
2.294e-10
-4.45329e-09
4.30074e-09
1.49059e-10
3.49738e-12
5.46823e-09
-5.11618e-09
5.06824e-10
-8.58878e-10
5.54341e-09
-5.14179e-09
5.60564e-10
-9.62189e-10
5.3527e-09
-5.00798e-09
4.96899e-10
-8.4162e-10
3.03118e-09
-3.69162e-09
-2.89953e-10
9.50393e-10
-4.88342e-09
4.89197e-09
-8.29853e-11
7.44331e-11
2.93308e-09
-3.11634e-09
3.06595e-09
-2.8827e-09
-4.35636e-10
4.06352e-09
7.06569e-10
-4.33446e-09
2.28536e-10
-2.63667e-10
2.37471e-10
-2.02341e-10
-1.34366e-08
1.48472e-08
-6.96411e-09
5.55353e-09
4.94484e-09
-5.51281e-09
-8.84662e-12
5.76811e-10
-2.7783e-09
-3.02155e-09
2.26028e-09
3.53957e-09
2.48069e-09
-1.72342e-09
2.83283e-09
-3.5901e-09
-7.9839e-09
-8.37732e-09
8.51805e-09
7.84318e-09
2.89178e-09
-3.17952e-09
7.84004e-09
-8.99567e-09
-6.53946e-09
7.69509e-09
-2.42426e-09
2.26704e-09
-3.0122e-09
3.16941e-09
-1.29486e-10
1.90911e-10
-6.24672e-09
5.02168e-09
-1.9742e-10
1.42246e-09
3.91142e-09
-2.14942e-09
1.93311e-09
-3.69511e-09
-3.08812e-09
4.27457e-09
2.54236e-09
-3.72881e-09
-3.09977e-09
2.56174e-11
4.22872e-10
2.65128e-09
4.56161e-09
-7.94071e-10
-4.56927e-09
4.53485e-09
-4.15218e-09
-3.32338e-09
2.9407e-09
-4.34076e-09
4.93789e-09
2.73027e-11
-6.24433e-10
-4.41699e-09
5.04192e-09
3.33997e-11
-6.58333e-10
-3.28637e-09
4.09545e-09
7.808e-10
-1.58988e-09
-3.26918e-09
3.62795e-09
-2.84294e-09
2.48417e-09
3.17523e-10
7.60318e-09
-7.92071e-09
-1.54351e-10
-3.74148e-09
-2.34696e-10
-4.5295e-10
2.81695e-09
8.69101e-10
-3.2331e-09
2.87771e-10
-3.07951e-10
2.38175e-09
-5.31174e-10
6.36289e-10
-2.48686e-09
4.89988e-09
-5.12496e-11
4.33427e-11
4.78768e-09
-4.75726e-09
1.58647e-11
-4.62794e-11
4.40339e-09
-4.29376e-09
1.67892e-11
-1.26424e-10
3.60609e-09
-3.47733e-09
-3.53109e-09
3.40232e-09
2.09645e-10
-1.66309e-10
-2.08096e-10
1.64759e-10
3.91776e-09
1.4656e-09
-3.06613e-11
4.06613e-09
1.50156e-09
-2.4286e-11
4.0014e-09
1.49801e-09
-3.11875e-11
-4.72575e-09
5.88226e-09
-1.2573e-09
1.00789e-10
5.34442e-09
-5.25803e-09
-2.69719e-10
1.83329e-10
-1.24451e-09
1.32623e-09
7.49897e-10
-8.31613e-10
-2.24331e-09
-4.61404e-09
3.62874e-09
3.22861e-09
-5.31898e-09
4.64281e-09
9.47335e-10
-2.71174e-10
6.62417e-09
6.33188e-11
-1.34306e-09
3.6556e-09
3.37507e-09
-2.83615e-09
-4.19452e-09
-4.35923e-09
2.75575e-10
4.14667e-09
-6.30186e-11
4.89642e-09
-4.89324e-09
-3.17201e-12
-2.19626e-15
-4.27394e-09
4.28805e-09
-3.46418e-11
2.05408e-11
-4.34527e-09
4.35965e-09
-3.55881e-11
2.12107e-11
-4.1844e-09
4.19818e-09
-3.37136e-11
1.99328e-11
1.48636e-09
-1.81169e-10
3.93939e-09
3.33331e-09
-5.28163e-09
-1.99107e-09
5.10817e-09
-4.64576e-09
-2.68454e-10
-1.93954e-10
-4.40195e-09
3.98214e-09
2.61966e-09
-6.07376e-09
5.74136e-09
-1.82189e-10
5.14584e-10
-4.6563e-09
-1.12473e-09
2.68228e-10
-1.56674e-09
-8.24398e-10
1.14662e-09
5.25185e-09
-5.78605e-10
-2.69854e-10
5.21469e-09
-5.22276e-09
1.41093e-11
-6.03617e-12
-4.88982e-09
4.89247e-09
-4.47044e-11
4.20569e-11
-4.31696e-09
4.26314e-09
-1.47666e-10
2.01488e-10
-4.39013e-09
4.33466e-09
-1.49722e-10
2.05187e-10
-4.22554e-09
4.17346e-09
-1.4515e-10
1.97237e-10
3.80682e-09
-3.93933e-09
-5.94094e-10
7.26609e-10
6.0559e-09
1.74088e-10
-1.44231e-09
2.80239e-09
-3.43406e-09
3.00863e-09
-3.08951e-09
2.40181e-09
2.96885e-09
5.92286e-09
-5.06584e-09
-7.64772e-11
-7.80544e-10
4.70249e-09
3.63164e-10
-1.25884e-09
7.19142e-09
-7.14401e-09
-7.56781e-10
7.09366e-10
4.26062e-09
-4.32617e-09
-6.90026e-11
1.34545e-10
-1.33815e-11
-6.95561e-11
3.53497e-09
-3.6047e-09
-2.28751e-10
2.98476e-10
3.59269e-09
-3.66353e-09
-2.3272e-10
3.03564e-10
3.46119e-09
-3.52946e-09
-2.23852e-10
2.9212e-10
5.52677e-10
5.03734e-10
-6.23556e-09
-4.3571e-09
4.95158e-09
-6.73494e-10
7.90176e-11
-4.42864e-09
5.03411e-09
-6.86465e-10
8.09979e-11
-4.26553e-09
4.84746e-09
-6.58993e-10
7.70699e-11
-5.03635e-09
5.46116e-11
-1.26498e-09
4.99648e-09
-1.36151e-09
-4.68864e-09
-3.39245e-09
-2.96581e-09
3.62131e-09
2.73694e-09
4.20986e-10
-1.53684e-10
-5.45265e-10
2.77962e-10
2.73706e-09
-4.29703e-09
5.16606e-09
1.1919e-09
-6.69045e-11
3.87897e-09
-7.31483e-11
1.95584e-10
3.94046e-09
-7.02697e-11
1.95943e-10
3.79797e-09
-7.14909e-11
1.91287e-10
4.95012e-09
-9.87509e-11
4.8514e-11
-2.66596e-10
1.8036e-10
1.04312e-09
7.45472e-11
-4.17735e-09
-1.31353e-10
-8.33082e-10
4.88427e-09
-4.87877e-09
5.84616e-12
-1.13503e-11
-4.2611e-09
1.87009e-10
-9.33888e-10
-4.35215e-09
1.89067e-10
-9.53095e-10
6.36027e-09
-5.45102e-09
3.86736e-11
-9.47918e-10
-4.88521e-09
4.89001e-09
5.16012e-12
-9.96869e-12
-6.12952e-10
1.45383e-10
-6.3949e-10
1.51306e-10
-6.26534e-10
1.48399e-10
-4.28634e-09
4.29821e-09
-1.09122e-11
-9.59206e-13
-4.35802e-09
4.37009e-09
-1.11646e-11
-9.07448e-13
-4.19645e-09
4.20804e-09
-1.06366e-11
-9.60868e-13
-5.4886e-09
5.4016e-09
-1.6152e-10
2.48519e-10
-3.95845e-09
4.35954e-09
-4.7648e-10
7.53984e-11
6.02742e-09
3.5984e-09
-5.97022e-09
2.74961e-09
3.37727e-09
-3.48784e-09
-2.63905e-09
-4.65587e-09
4.6789e-09
-2.16146e-11
-1.4099e-12
-4.24498e-10
2.3522e-09
-3.8989e-09
4.20977e-09
-8.0032e-12
-3.02868e-10
5.17998e-09
-4.6393e-09
-3.69251e-11
-5.03758e-10
-4.12992e-09
4.15444e-09
-3.4616e-11
1.00995e-11
5.15296e-09
7.40196e-10
-1.51794e-10
4.14006e-09
-4.1298e-09
-1.34545e-10
1.24288e-10
5.49475e-09
-4.71176e-09
5.59779e-11
-8.38975e-10
3.13663e-09
-4.04131e-09
3.65113e-09
-2.74646e-09
-4.19561e-09
4.83578e-09
2.19142e-10
-8.59315e-10
6.33016e-09
1.81332e-09
-4.38041e-09
-3.76307e-09
-4.50853e-09
4.52594e-09
3.47781e-12
-2.08869e-11
-5.14819e-09
4.9748e-09
-6.17417e-11
2.35134e-10
-7.89096e-10
4.11744e-09
5.1582e-10
-3.84417e-09
-1.09876e-09
5.79246e-09
-1.26932e-10
3.80244e-09
-2.78038e-09
3.40288e-09
-4.42494e-09
2.86555e-09
-4.26977e-09
3.46938e-09
-2.06516e-09
-4.23824e-09
-1.76089e-10
-6.08332e-10
4.44567e-10
4.0352e-09
5.02554e-09
-4.25377e-09
-5.2527e-11
-7.19243e-10
-5.37429e-09
5.24278e-09
-1.0909e-10
2.40601e-10
-2.78532e-10
2.27769e-10
5.0763e-11
3.36837e-09
-3.48529e-09
-1.80211e-11
1.34946e-10
4.39731e-09
-4.16225e-09
1.86176e-10
-4.21236e-10
-3.65078e-09
-3.0685e-09
2.6364e-09
5.93638e-09
-6.04361e-09
6.34271e-11
4.37996e-11
-4.31582e-09
-5.78657e-11
3.29256e-11
-1.51561e-10
9.14907e-11
1.46496e-10
-8.64252e-11
6.70556e-09
-5.39698e-09
2.16257e-10
-1.52484e-09
4.74717e-09
8.3959e-11
-5.70504e-10
-4.91086e-09
5.37421e-09
2.39316e-11
-4.87277e-10
4.57171e-09
-9.54264e-10
-1.56259e-10
4.74902e-09
-9.90508e-10
-1.6582e-10
4.67014e-09
-9.73952e-10
-1.61221e-10
5.31598e-09
-5.43575e-09
4.48984e-10
-3.29209e-10
-4.78889e-10
1.01847e-10
-1.78355e-10
5.55397e-10
-4.36756e-09
-1.0167e-10
5.22451e-11
6.31854e-10
-1.91749e-09
-6.18808e-10
1.90444e-09
-3.5368e-09
4.10363e-09
2.72697e-10
-8.39531e-10
3.35843e-09
-1.56867e-09
-1.78976e-09
-4.14884e-10
4.21066e-09
7.82502e-10
-4.57828e-09
5.89913e-09
-5.92699e-09
3.10255e-12
2.47588e-11
-6.1317e-09
5.99082e-09
-1.08713e-10
2.49593e-10
-3.86104e-09
3.9689e-09
4.28682e-10
-4.71262e-09
-4.25119e-10
2.26882e-10
4.55251e-09
1.55616e-10
-4.15191e-09
-2.41035e-09
2.38733e-09
3.07128e-09
-6.01921e-09
-1.33837e-09
2.13573e-10
2.35804e-10
-1.32253e-10
-5.9779e-09
7.03262e-09
1.98861e-10
-1.25358e-09
3.26004e-09
-3.64264e-09
1.02504e-11
-7.33762e-10
-3.21582e-09
4.87487e-10
4.47248e-09
3.86303e-11
-8.19774e-11
4.12039e-09
-4.12903e-09
1.61121e-11
-7.4738e-12
5.75426e-09
-3.02109e-10
-5.06727e-09
-3.84877e-10
4.92341e-09
-2.75852e-10
-4.34298e-09
-3.04577e-10
5.03167e-09
-2.8e-10
-4.43739e-09
-3.14276e-10
5.11945e-09
-2.82613e-10
-4.51343e-09
-3.23407e-10
6.42278e-09
-3.21083e-10
-5.64677e-09
-4.54924e-10
6.10426e-09
-1.28427e-09
2.88191e-10
4.50048e-09
-4.47022e-09
-7.02688e-11
4.00036e-11
4.06539e-09
-7.39922e-11
1.05053e-09
3.98074e-09
-7.41741e-11
1.03132e-09
-1.64291e-10
2.07629e-10
-4.49663e-09
-7.1707e-09
1.00182e-09
1.28277e-10
6.0406e-09
4.89463e-09
-2.84493e-12
4.63398e-12
-4.13635e-09
4.14031e-09
3.93715e-12
-7.89504e-12
2.87093e-09
-3.20885e-09
3.71203e-09
-3.37411e-09
5.16685e-09
-5.12493e-09
-7.74748e-11
3.55589e-11
-4.51504e-09
-2.09629e-12
8.6053e-12
-4.04463e-10
4.26826e-09
-4.89509e-10
4.68656e-09
-4.66759e-09
-1.92901e-11
3.20274e-13
-2.31426e-10
8.87731e-11
-1.85855e-10
5.32022e-10
-1.9151e-10
5.504e-10
-1.89087e-10
5.42269e-10
-6.74519e-10
-7.01576e-11
4.72541e-09
-6.90157e-10
-7.1589e-11
4.82713e-09
-5.17647e-09
5.11142e-09
-1.85371e-10
2.50418e-10
5.17588e-09
5.35609e-11
-7.64793e-11
8.10635e-11
-2.76687e-10
-4.01285e-09
4.10888e-10
8.6621e-10
-4.63967e-09
3.79088e-11
7.02853e-10
9.69222e-10
-2.7371e-10
1.07762e-09
2.40382e-10
1.12009e-09
2.50487e-10
1.10135e-09
2.45535e-10
2.95497e-09
-2.89978e-09
-3.4825e-09
3.15971e-09
-2.99198e-09
3.31478e-09
-6.55575e-09
-7.65175e-10
6.13827e-09
1.18266e-09
-5.39336e-09
5.43847e-09
-4.93159e-11
4.20501e-12
-1.1225e-11
1.04527e-11
-2.4596e-10
-4.51786e-09
-8.16898e-11
7.07488e-11
-8.46631e-11
7.40543e-11
-8.3279e-11
7.24753e-11
5.79713e-09
-5.81411e-09
-7.18383e-11
8.88188e-11
3.74504e-09
-3.46272e-09
-3.14661e-09
2.8643e-09
-4.18072e-09
-4.4773e-10
-2.59763e-11
4.65443e-09
-1.07969e-09
2.77663e-10
4.09426e-09
-3.32555e-09
-5.15863e-09
5.62864e-09
-8.5991e-10
3.89898e-10
4.48915e-09
-8.36687e-10
-2.84094e-10
4.56044e-09
3.24576e-11
-6.69564e-11
3.18078e-09
-3.59113e-09
-3.07216e-09
-1.02706e-10
1.36711e-10
-1.05057e-10
7.10523e-11
-4.29903e-09
4.35485e-09
-7.72815e-11
2.14644e-11
-4.3709e-09
4.42757e-09
-7.85909e-11
2.1917e-11
-4.20886e-09
4.26353e-09
-7.56507e-11
2.0985e-11
-3.66202e-09
4.09379e-09
2.92265e-09
-3.35442e-09
-3.2761e-09
-2.03327e-09
4.31838e-09
-1.36538e-11
7.20808e-10
-3.51988e-10
6.45533e-10
-2.1061e-10
3.89622e-09
8.45966e-10
-4.53158e-09
1.6664e-09
-2.6682e-11
1.06595e-09
7.00612e-10
4.06773e-09
-1.88281e-10
1.30053e-09
3.87995e-09
-3.11944e-11
9.87023e-10
-3.75125e-11
1.08977e-10
2.78963e-10
-3.50428e-10
-5.90706e-09
-6.99459e-10
-9.15582e-12
6.61568e-09
-1.52259e-10
7.33994e-11
-5.20829e-09
5.22427e-09
-9.13425e-13
-1.50638e-11
4.38701e-09
-1.01477e-10
1.20922e-09
-4.91056e-10
9.7684e-11
-4.86133e-10
3.8817e-09
-4.67888e-09
1.28331e-09
-3.89552e-09
3.97282e-09
-6.85634e-10
-1.80092e-10
4.25133e-09
4.20212e-09
-5.22744e-09
4.39576e-09
-3.37043e-09
5.56524e-09
-1.12112e-09
-3.04064e-10
1.19549e-09
-7.50512e-11
6.84691e-10
-3.08274e-12
3.81615e-09
-5.0099e-09
1.87809e-09
-6.84334e-10
-2.47806e-09
-6.16482e-09
6.04973e-09
2.59315e-09
-4.87319e-09
4.86671e-09
-1.56345e-12
8.04782e-12
-5.27838e-09
1.86836e-09
5.37935e-09
1.66207e-10
-7.90409e-11
8.19675e-11
-1.69134e-10
-6.02052e-09
-2.9673e-09
6.50976e-09
-4.32473e-09
3.79042e-09
7.42382e-10
-2.08082e-10
-4.16473e-09
3.65094e-09
7.14091e-10
-2.00296e-10
-4.2538e-09
3.72879e-09
7.29667e-10
-2.04659e-10
-3.79409e-09
-2.23386e-10
-6.41523e-10
-2.49912e-09
-2.32374e-09
-2.09292e-09
-5.11964e-09
2.81061e-09
5.70158e-09
-1.53032e-09
1.14472e-09
-3.25371e-09
-3.44983e-09
3.9524e-09
1.2377e-10
1.96526e-10
-1.54089e-10
-4.14404e-09
3.2229e-13
7.36137e-12
-2.2377e-10
-2.62034e-11
-7.77547e-09
5.90371e-09
-4.27025e-09
-4.09189e-09
4.56473e-09
-4.56809e-10
-1.60319e-11
-4.60855e-09
5.16213e-09
-5.30147e-10
-2.34349e-11
-4.32708e-09
4.22657e-09
4.2078e-09
2.75764e-09
-2.1969e-09
1.54545e-10
-5.99528e-11
1.78658e-10
2.57499e-10
-2.26512e-10
-5.31872e-09
6.06949e-09
-7.46511e-10
-4.25908e-12
4.67905e-09
-5.40734e-09
-1.17522e-10
2.26795e-10
3.24819e-09
-4.65991e-09
4.19887e-09
-2.78715e-09
-4.80643e-09
5.47794e-09
-6.65796e-10
-5.71209e-12
-6.52549e-09
6.79246e-09
-8.04244e-09
3.73577e-13
1.00312e-11
5.05486e-09
-1.07979e-10
1.41338e-09
-2.10295e-10
-5.85632e-11
1.34186e-11
-1.16881e-11
1.39739e-11
-1.23415e-11
1.37348e-11
-1.20264e-11
-4.80248e-09
-1.04823e-09
3.99996e-10
6.18649e-10
-2.99324e-12
9.20937e-10
-2.00141e-11
-6.99722e-11
-2.68527e-10
1.11682e-11
-8.85165e-14
3.44789e-09
3.14441e-09
-2.38408e-09
-4.20822e-09
-5.75845e-09
6.46638e-09
-7.17636e-10
9.70822e-12
3.86836e-09
2.20905e-09
-2.16599e-09
4.19467e-09
4.03665e-11
-2.52597e-11
5.30265e-10
3.14733e-10
-8.34181e-11
7.54809e-11
3.95512e-09
3.46062e-09
-3.32148e-09
-4.9e-13
9.9113e-12
-2.1341e-09
1.76172e-09
3.17477e-09
2.90127e-09
3.97219e-10
-3.29849e-09
-4.25437e-09
3.67405e-09
8.12934e-10
-2.3262e-10
1.64532e-11
-1.72688e-11
1.70767e-11
-1.78885e-11
1.6809e-11
-1.76292e-11
1.98089e-10
-2.47511e-10
-4.61098e-09
4.04071e-09
7.90584e-10
-2.20309e-10
-4.94539e-09
9.31939e-10
-1.51281e-10
-5.13668e-09
9.68567e-10
-1.5661e-10
-5.05161e-09
9.52179e-10
-1.54368e-10
4.5213e-09
-6.84677e-11
4.76483e-11
3.64187e-09
-7.16499e-10
-4.89361e-09
1.96824e-09
-5.10822e-09
4.4741e-09
8.77272e-10
-2.43154e-10
1.16652e-10
4.3841e-10
-1.96295e-10
-1.96526e-10
2.26512e-10
4.70365e-09
-6.37098e-11
4.66182e-11
1.12967e-09
-3.72891e-09
-9.8329e-10
-3.24469e-13
1.15706e-11
1.47339e-11
-5.34238e-12
4.56292e-09
-4.89583e-09
3.67999e-10
-3.50915e-11
-8.48054e-09
4.45298e-09
7.34637e-09
5.19791e-09
-9.70861e-11
6.60274e-11
-4.58932e-09
-9.67162e-11
2.97342e-11
-4.88179e-09
-2.28829e-10
-9.76759e-11
6.48225e-10
-2.59452e-10
7.17661e-11
-1.59013e-10
7.63643e-11
-1.87044e-10
4.09188e-09
1.52634e-11
1.3252e-11
9.87201e-12
1.43891e-12
8.49032e-11
-1.87685e-10
3.0054e-10
-2.97431e-10
3.41723e-09
3.74422e-09
-3.35901e-09
9.76214e-11
-2.18433e-10
1.13683e-11
4.74152e-10
-4.24351e-10
-6.11688e-11
4.52947e-11
-4.5307e-11
1.11499e-09
-2.07229e-10
5.75811e-09
7.54071e-12
3.14832e-11
4.12284e-09
-4.33577e-09
4.23868e-09
1.03285e-09
-1.65896e-10
5.23071e-09
4.62424e-10
1.82734e-09
5.77619e-10
-3.46723e-11
9.54499e-11
-1.08957e-10
6.33164e-12
-4.82195e-12
2.77048e-09
1.79156e-09
-2.33747e-09
-2.22457e-09
-7.37137e-09
8.47701e-09
7.61238e-09
-8.71803e-09
4.27963e-10
-3.9455e-10
-2.20447e-11
-9.40858e-13
1.22185e-11
-5.74298e-09
5.51711e-09
3.34023e-10
-1.0815e-10
7.59103e-11
-7.62577e-11
1.14048e-09
-1.79218e-10
2.3333e-10
3.04552e-10
-3.0054e-10
-5.47034e-09
5.97064e-09
-9.60039e-10
4.59734e-10
-6.28065e-09
-9.93409e-10
1.60507e-09
5.66899e-09
1.88184e-10
-3.73651e-10
-4.50607e-09
2.70144e-09
4.71712e-09
-2.91249e-09
3.58497e-09
-1.26145e-10
1.10591e-09
-2.39869e-09
2.70706e-09
-6.47319e-09
2.15775e-09
4.69134e-09
-2.87207e-09
-3.97702e-09
-3.23899e-11
4.63335e-11
3.93402e-09
-4.22328e-09
-3.17004e-09
3.4593e-09
4.21239e-09
-3.08231e-10
5.20914e-09
-1.28612e-10
1.38585e-09
-5.1357e-09
3.20358e-09
3.11401e-09
-1.18189e-09
3.91409e-09
-3.62905e-11
-2.92832e-10
3.51189e-09
-3.29091e-09
2.72497e-09
-2.94595e-09
-4.73054e-09
7.4576e-10
-1.48556e-09
2.95944e-09
-3.05034e-09
1.72519e-09
-2.56738e-10
-1.72638e-09
2.5793e-10
3.73032e-09
3.08239e-09
-2.70779e-09
-4.10492e-09
-7.19431e-09
2.57879e-09
-2.44363e-09
-4.1215e-09
-2.97394e-09
4.0043e-09
3.09113e-09
4.80855e-09
-3.44755e-09
2.08689e-09
4.26249e-09
3.9672e-09
-2.6447e-09
-2.36735e-09
1.9905e-09
5.79173e-09
-4.18969e-12
-5.78403e-10
-4.00616e-09
5.26642e-10
-5.03651e-09
9.61243e-11
4.88489e-09
5.55001e-11
-3.56703e-09
2.90156e-09
-2.45087e-09
2.4007e-10
-3.35015e-10
3.24345e-10
2.01096e-09
-2.87336e-09
-1.27102e-10
-4.60255e-09
3.70423e-10
3.36359e-10
-3.88908e-09
-5.70347e-09
4.84262e-09
-2.21314e-09
3.07399e-09
2.70062e-09
-2.61955e-09
-2.73504e-09
-5.92329e-09
7.00289e-09
1.65544e-09
2.31139e-09
-1.29533e-12
-3.63783e-11
4.65637e-10
-2.41441e-09
-6.16161e-09
5.79607e-09
2.77995e-09
8.90075e-10
3.54529e-09
-3.46429e-09
-9.71071e-10
-5.78491e-09
-2.6343e-09
-1.13372e-09
-7.21707e-09
5.93204e-09
2.41875e-09
-1.84234e-09
1.36011e-09
1.13176e-09
-3.78246e-09
5.03555e-09
-2.38485e-09
1.46216e-09
-1.44905e-09
-3.21441e-09
9.79308e-11
-5.45854e-09
9.58854e-10
4.40175e-09
-3.34473e-09
4.31868e-09
-4.76217e-09
-4.52894e-09
1.7408e-09
3.91991e-09
3.87555e-09
4.36223e-09
-5.23797e-09
-2.99981e-09
5.91442e-10
-3.38061e-09
2.33931e-10
-7.01433e-10
-3.1842e-09
3.25313e-09
-3.71419e-09
3.64526e-09
2.23769e-09
-2.99251e-09
-1.68236e-09
-3.80431e-09
-2.84711e-09
4.40811e-09
-2.21102e-10
5.91542e-09
7.33984e-10
-6.4283e-09
2.89978e-09
-2.95944e-09
-3.67406e-09
-3.3473e-09
3.57927e-09
-5.74411e-09
5.51215e-09
5.74515e-09
-4.28088e-09
-5.72307e-09
-3.39301e-09
3.3009e-09
4.3546e-09
-4.09858e-09
8.87649e-11
4.1415e-09
-1.31685e-10
3.28207e-09
6.0851e-10
-3.59573e-09
-2.94848e-10
6.15305e-09
-2.83836e-09
-2.89626e-09
3.23413e-09
-1.98342e-09
-5.45504e-09
8.82705e-10
3.82956e-10
4.86185e-09
-1.07896e-09
5.07368e-09
-4.16159e-09
2.11789e-09
-3.02998e-09
-2.43738e-10
1.70773e-10
-9.56278e-09
2.5287e-09
-1.54266e-09
8.57675e-09
-2.90128e-09
3.2205e-09
6.88246e-11
-1.35994e-09
-5.81836e-09
7.10948e-09
5.94344e-11
-5.22919e-09
-1.21412e-09
6.38388e-09
4.6677e-11
-1.0337e-09
-4.49147e-09
5.47849e-09
4.93275e-11
-1.07587e-09
-4.6655e-09
5.69205e-09
4.79916e-11
-1.05663e-09
-4.58808e-09
5.59672e-09
4.16369e-09
-4.0606e-09
9.30407e-11
-1.96127e-10
4.32494e-09
-4.21752e-09
9.68836e-11
-2.04304e-10
4.25327e-09
-4.14788e-09
9.51889e-11
-2.0058e-10
2.40035e-09
-2.41528e-09
3.7189e-09
-3.70397e-09
-3.13491e-09
-3.93913e-09
4.17778e-09
3.56278e-10
-3.9037e-09
1.06213e-11
-3.47585e-09
7.19887e-10
-9.70699e-10
3.72666e-09
4.71719e-10
3.94175e-09
-2.75556e-09
2.87214e-09
-2.83227e-10
4.46632e-09
-4.3937e-09
3.6648e-09
-3.81182e-09
4.06337e-09
-5.74407e-10
-2.89699e-09
2.81272e-09
6.5868e-10
-3.78205e-09
4.01411e-09
-6.46939e-10
2.28926e-09
-5.67868e-09
7.78251e-09
-4.3931e-09
4.94281e-10
-5.65026e-09
3.3767e-11
4.07243e-09
5.96291e-10
7.92913e-09
-7.17121e-09
-2.9691e-09
-2.8736e-09
-6.05879e-09
2.72864e-09
8.23026e-09
-1.6764e-10
-8.43428e-09
3.71663e-10
-9.20662e-10
-4.04276e-09
1.18137e-09
9.18347e-11
-1.69493e-10
-8.45744e-11
1.62233e-10
2.68369e-10
5.18089e-09
1.1033e-09
-6.55256e-09
-1.98611e-09
-3.00088e-11
2.32723e-09
-3.1111e-10
-1.85103e-09
2.78278e-09
3.8254e-09
-3.32685e-09
-3.73738e-09
-6.08726e-10
3.53687e-11
4.31074e-09
-2.38832e-10
-3.31529e-10
3.37678e-10
-1.28208e-09
-3.89878e-09
1.35022e-09
7.02851e-09
-2.57281e-09
-6.49223e-09
2.03653e-09
5.22355e-09
3.71908e-10
-6.59277e-09
9.97309e-10
2.9127e-09
6.24726e-10
-3.53743e-09
-3.40967e-09
6.70631e-09
2.7509e-09
-6.04754e-09
-2.33561e-10
1.61037e-10
4.13621e-09
3.03759e-09
-3.28107e-09
-3.89273e-09
4.56626e-09
-6.54968e-09
-2.33159e-09
5.29016e-10
2.79217e-09
-9.896e-10
4.36453e-09
-4.10362e-09
1.42366e-10
-4.03276e-10
-2.96017e-09
3.67868e-09
4.68319e-09
-5.4017e-09
-2.75814e-09
3.5816e-09
4.43472e-09
-5.25818e-09
-3.29031e-09
4.02772e-09
5.23089e-09
-5.9683e-09
-2.62406e-09
3.31914e-09
4.12812e-09
-4.8232e-09
5.62046e-10
-4.39147e-09
4.61549e-09
-7.86067e-10
-3.65e-09
4.55308e-09
5.95507e-09
-6.85815e-09
3.95673e-09
4.74223e-09
-4.13828e-09
-4.56068e-09
-3.04821e-09
7.01043e-09
3.0663e-09
-3.40232e-09
3.35901e-09
-3.12644e-10
3.33045e-10
1.19465e-10
-5.21384e-09
5.22692e-09
-1.32544e-10
1.61662e-09
-3.55655e-09
-1.93008e-09
3.87001e-09
6.46135e-09
-2.56341e-09
-6.47075e-09
4.60868e-09
-4.496e-09
1.02037e-10
-2.14711e-10
3.73996e-10
6.37634e-10
-2.26777e-09
-3.27597e-09
3.00266e-09
2.54108e-09
4.08591e-09
-6.2913e-09
-4.17819e-09
6.38358e-09
-1.21697e-10
5.94553e-10
-8.89807e-12
-4.2161e-11
3.42411e-10
-2.91351e-10
-4.07742e-09
4.09933e-09
1.73199e-11
-3.92397e-11
-3.81069e-09
4.4356e-09
-4.45164e-09
5.29767e-09
2.5554e-09
-5.48211e-09
-2.37097e-09
3.55254e-09
5.70186e-09
-3.47011e-09
-3.54785e-09
4.11668e-09
-4.9572e-09
-6.51602e-10
1.3958e-09
4.213e-09
-6.22269e-09
-7.82248e-10
1.63107e-09
5.37387e-09
-5.40155e-09
-7.64513e-10
1.54754e-09
4.61853e-09
-5.5923e-09
-7.18881e-10
1.51749e-09
4.7937e-09
-7.17906e-09
-9.66854e-10
1.88001e-09
6.26591e-09
7.14378e-10
-3.15796e-10
-6.14157e-09
-3.35398e-09
3.2579e-09
-4.31797e-09
4.41405e-09
-3.70836e-09
-1.27457e-09
-2.1618e-09
4.44436e-09
4.41129e-09
-6.69385e-09
3.92405e-09
-4.24884e-09
-2.92892e-09
5.95416e-10
4.16115e-10
-8.35475e-10
-1.76055e-10
2.74841e-09
5.31507e-09
-4.386e-09
-4.73976e-09
-6.07328e-09
5.99187e-09
-1.87113e-11
1.00121e-10
5.92146e-09
-4.40523e-09
2.91128e-09
-4.23409e-09
-1.03356e-11
4.30356e-09
-5.9132e-11
3.63213e-09
-5.16018e-10
-3.10586e-09
-2.96196e-09
3.09608e-09
6.09913e-09
1.54863e-09
-3.16087e-09
-4.48689e-09
6.46891e-09
1.3451e-09
-2.77767e-09
-5.03635e-09
2.61898e-09
-5.97072e-09
2.72179e-09
-1.80212e-09
-3.28117e-09
2.3615e-09
-3.15262e-09
-3.85276e-09
4.04343e-09
2.12045e-10
-6.04089e-09
4.22357e-09
1.60528e-09
1.44896e-09
3.01979e-10
3.97417e-09
2.83121e-10
-2.92527e-09
7.8498e-09
-4.77006e-09
-6.04704e-09
-2.52935e-09
-1.80689e-10
2.86926e-09
-7.58273e-10
1.46371e-09
5.71734e-09
-6.94784e-10
1.37407e-09
5.07497e-09
-6.29849e-10
1.27188e-09
4.47742e-09
-6.09504e-10
1.23873e-09
4.29418e-09
-6.21383e-10
1.25855e-09
4.3945e-09
-8.48785e-10
-9.09495e-10
-5.58562e-09
7.3439e-09
-2.82088e-09
2.69442e-09
2.10289e-10
-8.38281e-11
-3.65554e-09
7.16652e-10
3.19132e-09
-2.5243e-10
-3.91963e-09
4.29226e-09
5.72941e-09
-6.10203e-09
-3.00499e-09
3.4243e-09
4.33436e-09
-4.75367e-09
-3.07105e-09
3.49048e-09
4.43301e-09
-4.85244e-09
-3.1252e-09
3.54095e-09
4.51552e-09
-4.93127e-09
-3.51255e-09
3.91469e-09
5.10196e-09
-5.5041e-09
3.51553e-09
2.78277e-09
-9.83228e-10
3.16281e-09
-4.10423e-09
4.45331e-09
5.70163e-09
-5.88605e-10
3.81326e-10
-5.49435e-09
4.52288e-09
1.75733e-10
-4.20433e-09
-3.80912e-09
-9.22555e-10
4.05307e-09
-6.00023e-09
-4.40812e-09
6.35528e-09
1.15136e-09
-5.77134e-09
-1.10566e-10
1.51772e-09
-6.09052e-10
-5.41779e-09
4.50912e-09
-1.54144e-10
-2.72281e-09
2.87695e-09
-3.00185e-09
-1.7388e-09
6.26316e-09
-5.65808e-09
-2.06474e-09
-3.06634e-09
3.72082e-09
1.41026e-09
3.46911e-09
-3.36713e-09
3.05773e-09
-5.38807e-09
8.51837e-10
4.7118e-09
-1.75573e-10
-2.79662e-09
1.07124e-09
-5.98525e-09
5.18237e-09
2.34567e-10
-1.1001e-08
-6.6714e-09
1.0301e-08
3.20431e-09
-2.82535e-09
3.54509e-09
1.09875e-09
3.27595e-09
3.47665e-09
-2.47683e-09
3.62019e-09
-4.62001e-09
3.11884e-09
1.15212e-08
-1.18307e-09
-1.3457e-08
-5.57588e-09
3.8201e-09
4.96361e-09
-1.44385e-09
1.533e-09
3.32764e-09
-3.41679e-09
1.73471e-09
-2.9258e-09
5.70781e-09
7.58039e-10
9.62601e-10
-9.55845e-10
-7.64795e-10
-5.34446e-09
-7.75449e-09
5.43241e-09
7.66655e-09