/*--------------------------------*- C++ -*----------------------------------*\
  =========                 |
  \\      /  F ield         | OpenFOAM: The Open Source CFD Toolbox
   \\    /   O peration     | Website:  https://openfoam.org
    \\  /    A nd           | Version:  8
     \\/     M anipulation  |
\*---------------------------------------------------------------------------*/
FoamFile
{
    version     2.0;
    format      ascii;
    class       surfaceScalarField;
    location    "4.4";
    object      phi;
}
// * * * * * * * * * * * * * * * * * * * * * * * * * * * * * * * * * * * * * //

dimensions      [0 3 -1 0 0 0 0];

internalField   nonuniform List<scalar> 
5897
(
4.56996e-10
-1.71587e-10
8.42315e-10
-1.12772e-09
-1.12894e-08
1.24176e-08
-1.21965e-08
1.10683e-08
9.54602e-09
-9.42352e-09
8.72668e-11
-2.09771e-10
1.68336e-10
-1.2951e-09
1.17993e-09
-5.31617e-11
1.23571e-08
-1.05474e-08
-1.17859e-10
-1.69181e-09
-7.5403e-09
-2.57796e-09
6.26379e-09
3.85448e-09
-4.80822e-09
4.25936e-10
-6.49292e-10
5.03157e-09
1.30709e-08
6.74673e-09
2.51509e-10
-2.00691e-08
-8.76596e-09
1.91016e-09
-6.8635e-10
7.54214e-09
2.75125e-09
9.34525e-09
-9.81783e-09
-2.27866e-09
-1.37669e-11
6.68784e-10
-7.5093e-10
9.59125e-11
-1.41908e-09
8.9931e-09
1.78267e-09
1.76635e-08
8.96052e-10
-1.51558e-08
-3.40369e-09
1.36471e-08
7.38218e-10
-2.0282e-09
1.60453e-09
1.86723e-10
-3.59757e-10
-1.43149e-09
-1.92924e-08
1.50468e-08
1.16658e-08
-7.42017e-09
4.30205e-09
5.12241e-09
-5.82041e-09
-3.60406e-09
-1.20045e-10
5.49132e-10
1.30912e-10
-5.59999e-10
7.04605e-11
-3.91566e-10
-1.01216e-10
4.22322e-10
9.94074e-09
-2.74882e-09
-1.00378e-08
2.84584e-09
-1.6491e-08
1.94797e-08
-5.31199e-09
2.32337e-09
5.14484e-09
-9.3102e-09
-3.37494e-09
1.09951e-08
-4.64718e-09
-7.96657e-09
1.61866e-09
-2.71653e-11
3.32271e-10
-1.73564e-08
1.70513e-08
6.94668e-09
-2.92398e-09
-9.91781e-09
5.89511e-09
-9.46506e-09
-7.08061e-09
5.63472e-09
1.09109e-08
-6.40908e-10
2.47846e-09
1.20113e-09
-3.03868e-09
-1.45369e-08
1.96373e-08
-9.78472e-09
4.68431e-09
2.76035e-10
-1.22513e-10
-2.17855e-10
6.43323e-11
-1.56303e-08
3.20044e-09
-6.86258e-09
-8.9739e-09
1.72756e-08
2.86418e-09
-1.11659e-08
-8.79917e-09
1.13849e-08
-1.39797e-08
1.13939e-08
-1.15802e-08
6.38803e-10
1.16168e-09
9.77972e-09
1.23556e-08
8.45755e-09
-1.38494e-10
-2.06747e-08
-8.78855e-09
-1.35648e-08
6.18706e-09
1.61663e-08
-8.78607e-09
3.01539e-10
8.48453e-09
4.13462e-09
-5.53889e-09
-3.24147e-09
4.64574e-09
1.707e-08
-1.57968e-08
-7.07561e-09
5.80236e-09
5.80306e-09
-6.04648e-09
8.19033e-10
-5.75609e-10
9.30919e-09
-1.2322e-08
-8.8699e-09
1.18828e-08
-1.14619e-09
9.65277e-10
2.07544e-09
-1.89452e-09
3.72181e-10
-5.59697e-09
-1.94049e-10
5.41884e-09
2.6816e-09
-3.68733e-09
1.03624e-08
-2.27316e-09
3.60825e-09
-3.87357e-09
2.53848e-09
-1.49551e-08
1.64094e-08
-2.85995e-09
1.40562e-09
1.71035e-10
-1.85701e-09
-3.33166e-10
2.01914e-09
8.26774e-09
1.15131e-09
-1.72444e-09
-7.69461e-09
5.17367e-11
4.91414e-11
-1.00878e-10
-1.55849e-10
7.62244e-11
3.8265e-10
-3.03026e-10
-1.27698e-09
3.20986e-09
-1.87071e-08
1.67742e-08
-6.29162e-09
4.48597e-09
-4.67501e-10
-6.72034e-09
-2.18393e-08
5.47031e-09
2.30893e-08
1.80597e-09
-3.97181e-09
9.5731e-09
-7.40726e-09
6.7058e-09
-7.42828e-09
-1.85548e-09
-2.52517e-09
1.21718e-09
1.38418e-10
8.42769e-09
-8.5661e-09
6.00424e-10
7.61749e-09
-8.21791e-09
-1.06203e-08
2.40245e-11
1.05963e-08
5.51075e-11
-1.41432e-08
2.07362e-10
1.38807e-08
8.30644e-09
-5.97729e-09
4.22104e-10
-1.13667e-08
9.12125e-12
1.13576e-08
-1.10219e-08
9.47432e-12
1.10124e-08
-1.06306e-08
5.11507e-12
1.06255e-08
1.14443e-08
-7.1611e-09
-4.2832e-09
-3.99146e-11
-1.68897e-08
1.69391e-08
-9.53806e-12
-3.90998e-11
-1.63253e-08
1.63731e-08
-8.69833e-12
-1.55883e-10
3.11084e-10
-1.29902e-09
1.14382e-09
5.95806e-10
6.02389e-09
-9.99873e-11
-6.51971e-09
-4.82392e-11
1.61184e-08
2.5412e-11
-1.60955e-08
-1.06058e-08
-1.66785e-12
1.06075e-08
5.05385e-10
-1.70114e-09
1.47502e-09
-2.79263e-10
-4.791e-11
1.61352e-08
1.6462e-12
-1.60889e-08
1.59811e-08
-1.5309e-08
-1.18735e-09
5.15271e-10
-1.05716e-08
-3.04687e-12
1.05747e-08
1.561e-09
-2.9458e-09
3.50513e-09
-2.12034e-09
1.58452e-10
1.63022e-08
-4.79599e-10
-1.54434e-09
4.43528e-10
2.66181e-09
-2.8387e-11
1.61159e-08
-1.49356e-11
-1.60725e-08
2.089e-09
5.14337e-09
-4.23714e-09
-2.99523e-09
2.57079e-09
-2.34559e-09
1.91979e-09
-2.14499e-09
1.68354e-08
2.96685e-09
-3.39283e-09
6.24989e-10
-1.62734e-09
1.50774e-09
-1.05391e-08
-2.38944e-12
1.05415e-08
1.42741e-10
-1.62089e-08
1.60886e-08
-2.24217e-11
-3.46455e-09
-8.6509e-09
3.20881e-09
8.90663e-09
-2.00872e-11
1.60895e-08
-2.36878e-11
-1.60457e-08
-7.73427e-09
5.41006e-09
-4.25646e-09
6.58067e-09
-1.79756e-11
1.68155e-08
-2.74927e-11
-1.677e-08
-1.74091e-11
1.62535e-08
-2.64791e-11
-1.62096e-08
-2.66286e-09
-9.92429e-09
4.85288e-09
-1.75694e-11
1.60654e-08
-2.27998e-11
-1.60251e-08
-1.0503e-08
-3.52701e-12
1.05065e-08
-1.61601e-08
-7.63616e-10
4.75757e-10
1.64479e-08
-1.12332e-08
-2.78491e-12
1.1236e-08
-1.08937e-08
-2.58994e-12
1.08963e-08
1.38049e-09
-1.7816e-11
1.60297e-08
-2.60495e-11
-1.59858e-08
-2.08709e-11
1.67759e-08
-2.1167e-11
-1.67339e-08
-2.02387e-11
1.62155e-08
-2.04395e-11
-1.61748e-08
2.95549e-09
3.66445e-09
-4.53094e-09
5.12129e-09
4.10072e-09
-6.26652e-09
-1.42396e-11
1.70139e-08
-6.01567e-11
-1.69395e-08
-1.5818e-11
1.64446e-08
-5.53091e-11
-1.63735e-08
-3.53582e-09
1.67152e-09
-1.46267e-08
1.94286e-09
7.80794e-09
-2.6604e-09
-7.09041e-09
-1.28397e-08
3.71027e-09
-6.50088e-09
1.23946e-10
3.64872e-10
-4.2624e-10
-6.25769e-11
-1.13163e-11
-1.59466e-08
1.59904e-08
-3.25045e-11
-1.1194e-08
-3.80169e-13
1.11944e-08
-1.0856e-08
-3.33224e-13
1.08563e-08
-1.77722e-11
-1.67018e-08
1.67499e-08
-3.0348e-11
-1.73138e-11
-1.61432e-08
1.619e-08
-2.95601e-11
1.16379e-10
-5.54762e-09
-3.31201e-10
5.76245e-09
-2.84219e-11
1.69239e-08
-1.68721e-08
-2.34477e-11
-2.76044e-11
1.63585e-08
-1.63083e-08
-2.25923e-11
7.87093e-09
1.20737e-08
-1.98966e-08
-4.79968e-11
-8.63898e-09
-5.88143e-09
1.10559e-08
2.73171e-10
1.7692e-08
-1.71698e-08
-7.95296e-10
2.54995e-10
1.70972e-08
-1.65951e-08
-7.57063e-10
-1.11631e-08
1.05257e-12
1.11621e-08
-1.08262e-08
1.04237e-12
1.08251e-08
9.19926e-09
7.45516e-10
-5.99533e-10
6.12748e-09
-7.71167e-09
7.36678e-09
-5.78259e-09
-2.19424e-11
1.68998e-08
-1.685e-08
-2.78416e-11
-2.12496e-11
1.63353e-08
-1.62873e-08
-2.67826e-11
3.69291e-09
-3.45608e-09
-5.24064e-10
2.87231e-10
4.8998e-10
2.21432e-09
-2.16576e-09
-5.38538e-10
-1.00075e-11
1.66937e-08
-2.1808e-11
-1.66619e-08
-1.02566e-11
1.61331e-08
-2.19573e-11
-1.61009e-08
-1.42102e-08
-4.49079e-09
1.58411e-08
-2.59419e-11
1.68765e-08
-1.68282e-08
-2.2281e-11
-2.50121e-11
1.63131e-08
-1.62663e-08
-2.17209e-11
4.42836e-09
3.8501e-09
-3.15717e-09
-2.1316e-11
1.6854e-08
-1.68223e-08
-1.0338e-11
-2.06441e-11
1.62912e-08
-1.62605e-08
-1.01099e-11
-6.39145e-10
-4.86389e-10
3.32365e-10
7.93169e-10
-5.25267e-09
4.11401e-09
5.10645e-09
-3.96778e-09
1.00632e-09
-3.99538e-10
-5.91044e-10
-1.57393e-11
-1.4267e-11
1.66732e-08
-4.09149e-12
-1.66549e-08
-1.7122e-11
1.61053e-08
-7.16859e-12
-1.6081e-08
-9.26338e-12
1.58775e-08
-2.10473e-11
-1.58472e-08
-1.03563e-08
-5.89748e-12
1.03622e-08
3.47159e-09
2.393e-09
-3.26806e-09
-2.59653e-09
-2.24849e-11
1.68487e-08
-1.39758e-11
-1.68122e-08
-2.16884e-11
1.62859e-08
-1.37289e-11
-1.62505e-08
-1.02608e-08
-1.29207e-08
1.18921e-08
2.56545e-10
-3.04881e-09
-5.2438e-14
2.79232e-09
-1.10786e-08
-1.06245e-11
1.10893e-08
-1.07456e-08
-9.99346e-12
1.07556e-08
-1.14066e-08
-1.1061e-08
8.55131e-10
1.93608e-09
-2.30123e-09
9.09693e-09
-8.54055e-09
-1.2459e-09
6.89521e-10
-4.49115e-09
-4.11814e-09
4.88715e-09
3.72214e-09
2.57084e-09
4.7195e-10
-2.78624e-09
-2.8624e-11
-1.67132e-08
1.6709e-08
3.281e-11
-1.8455e-11
-1.60656e-08
1.60942e-08
-1.01639e-11
8.15759e-10
-1.52586e-09
-1.45989e-08
-1.06682e-08
-2.02727e-09
1.96447e-09
-7.63649e-12
1.58578e-08
-1.51015e-11
-1.58351e-08
-1.11027e-08
1.1092e-08
1.06435e-11
-1.07118e-08
1.07024e-08
9.43416e-12
-1.32074e-08
-3.52794e-09
-1.05932e-08
1.0545e-08
-1.03169e-08
-1.22064e-11
1.03291e-08
-9.92095e-10
8.12253e-10
4.74692e-10
-2.9485e-10
-4.06215e-09
-6.21871e-09
3.44459e-09
6.83627e-09
-1.0659e-08
-1.10478e-08
-8.41184e-13
1.10486e-08
-1.07206e-08
1.3805e-12
1.07192e-08
8.56646e-09
1.52916e-09
-1.82788e-09
1.59814e-08
-1.59151e-08
2.24921e-11
-8.88333e-11
-1.07713e-11
1.5853e-08
6.64305e-12
-1.58488e-08
-2.01732e-08
1.14398e-08
-1.06259e-08
-1.06303e-08
1.06754e-08
-4.51666e-11
-1.06196e-08
1.1021e-08
-4.0146e-10
7.27722e-10
1.74221e-09
-1.6148e-09
-1.7491e-08
4.20589e-09
-1.23815e-08
-1.68808e-08
3.93908e-09
-1.18365e-08
-1.62357e-08
3.8022e-09
-1.16722e-08
-6.40434e-12
1.59582e-08
-1.59185e-08
-3.33494e-11
-1.02902e-08
-2.86684e-12
1.02931e-08
1.09942e-08
-1.08357e-08
1.03863e-08
1.12478e-09
-2.41416e-09
-1.68362e-11
1.59204e-08
3.00013e-11
-1.59336e-08
-1.05892e-08
-1.1032e-08
4.84061e-12
1.10271e-08
-1.07148e-08
6.55508e-12
1.07082e-08
-1.72432e-11
1.82721e-09
-1.18497e-09
-1.02367e-11
1.59351e-08
-1.59034e-08
-2.14176e-11
-3.72593e-09
6.18311e-09
3.05066e-09
-5.50784e-09
1.5869e-08
-1.62676e-08
6.87787e-10
-2.89168e-10
3.75837e-10
-1.73518e-10
-4.22274e-10
2.19954e-10
-1.02357e-11
1.6729e-08
-3.01973e-11
-1.66886e-08
-1.00434e-11
1.61693e-08
-2.94453e-11
-1.61298e-08
3.90606e-09
-5.43867e-10
3.30715e-10
5.28464e-12
-1.1108e-08
1.10723e-11
-1.07229e-08
-1.14022e-08
1.1388e-08
-1.1054e-08
1.10382e-08
-1.05569e-08
-9.93435e-09
1.03175e-08
-3.83129e-10
-4.34607e-12
1.59163e-08
-1.58888e-08
-2.32094e-11
-1.09055e-11
-1.6834e-08
1.68502e-08
-1.97682e-11
-1.60885e-08
1.61193e-08
-1.03036e-08
6.71124e-12
1.02969e-08
-4.37297e-12
1.5996e-08
-1.02171e-11
-2.88845e-11
6.93675e-11
1.10722e-10
-1.51205e-10
-1.12511e-08
-1.09112e-08
-2.3541e-09
4.01206e-09
8.28278e-09
6.2453e-10
1.48247e-09
-1.37928e-09
1.21094e-08
-1.30611e-08
2.76257e-09
-2.41642e-09
-7.59737e-09
7.25122e-09
-5.23229e-12
1.59017e-08
-2.22781e-11
-1.58742e-08
-8.51325e-11
-1.05451e-08
-1.03818e-08
-2.37764e-10
-1.05143e-08
1.13522e-08
-1.13806e-08
1.10088e-08
-1.10364e-08
-1.88452e-10
-1.58838e-08
1.59871e-08
-1.12149e-08
-1.08762e-08
-4.25678e-09
-8.69787e-09
8.00517e-09
4.94948e-09
-1.94743e-09
5.01843e-09
7.92409e-09
2.46836e-09
5.7731e-09
-5.77197e-09
-2.46949e-09
-1.1348e-08
1.1326e-08
-1.10049e-08
1.09837e-08
1.63299e-08
-1.63857e-08
-1.96308e-10
2.52068e-10
-3.63543e-09
7.59362e-09
-6.51813e-09
2.55995e-09
-5.902e-10
-9.34415e-09
-1.03068e-08
2.32338e-12
1.03044e-08
4.16191e-09
-4.73751e-09
-8.06338e-09
-4.95143e-10
1.5774e-08
-1.62053e-08
1.61156e-08
-1.43539e-10
2.3331e-10
1.1295e-08
-1.1321e-08
1.09536e-08
-1.09786e-08
-1.67192e-10
1.50144e-10
1.22167e-09
-1.20462e-09
-1.11809e-08
-1.08435e-08
1.83181e-10
-7.47548e-09
6.68462e-09
6.0768e-10
7.64758e-11
1.67411e-08
-8.03628e-11
-1.67372e-08
1.43153e-08
-1.12431e-08
-1.99267e-08
1.68546e-08
1.54534e-08
-1.12199e-08
-2.23746e-08
1.8141e-08
1.48264e-08
-1.07964e-08
-2.16081e-08
1.7578e-08
-1.60595e-08
-7.19814e-11
1.50323e-10
1.59812e-08
5.3859e-09
-7.2909e-09
-1.5549e-09
3.45991e-09
1.12765e-08
-1.12978e-08
1.09355e-08
-1.09561e-08
-1.51466e-08
1.55362e-08
-2.46865e-10
1.66533e-08
1.03499e-10
-1.43816e-10
-1.6613e-08
1.17655e-08
-1.14923e-08
1.13889e-08
-1.11339e-08
-9.43988e-09
1.15168e-08
-1.28522e-08
1.07753e-08
1.66806e-08
4.83554e-11
-7.56605e-11
-1.12806e-08
1.12581e-08
-1.09394e-08
1.09177e-08
3.01586e-10
-1.77017e-10
1.68572e-10
-1.02472e-10
-3.26902e-10
2.60801e-10
-3.87189e-11
1.67808e-08
6.12441e-11
-1.68033e-08
-1.33483e-11
1.60896e-08
-2.45313e-12
-1.60738e-08
-1.59327e-08
1.59777e-08
-1.17888e-12
-4.38107e-11
-1.66699e-08
1.66428e-08
-1.42095e-11
4.13176e-11
-1.22881e-11
2.74868e-11
-1.59479e-08
-4.9334e-12
1.56674e-11
2.58814e-10
3.13713e-10
-1.9669e-10
-1.59736e-08
1.59861e-08
-8.96869e-12
-3.50867e-12
-1.65804e-08
1.65623e-08
-1.54666e-11
3.35572e-11
-6.83343e-09
7.10942e-09
2.48658e-09
-1.10886e-08
-1.07559e-08
-1.03656e-08
6.71936e-11
-1.66998e-08
-3.71618e-11
1.66698e-08
-2.33126e-09
8.05452e-09
-9.98004e-09
-1.5966e-08
1.5978e-08
-1.82904e-11
6.32877e-12
-1.65193e-08
1.65259e-08
-1.93464e-11
1.27378e-11
1.43071e-09
-1.23463e-09
-3.63279e-10
-1.59574e-08
1.59691e-08
-1.28209e-11
1.11083e-12
-1.6503e-08
1.6513e-08
-1.72914e-11
7.29571e-12
1.81894e-10
-1.25861e-10
1.59519e-08
-1.59529e-08
-1.70169e-11
1.8028e-11
1.64983e-08
-1.64981e-08
-1.86975e-11
1.85338e-11
1.98278e-08
-7.94814e-09
4.76e-10
-1.83693e-11
2.24761e-11
5.5442e-11
6.96142e-12
1.55569e-08
5.14033e-11
-1.55412e-08
-1.04761e-08
1.04696e-08
-1.59127e-08
1.59289e-08
-3.21892e-11
1.59036e-11
-1.64579e-08
1.64756e-08
-3.32423e-11
1.55649e-11
1.56107e-08
3.12346e-11
-8.50387e-11
-1.1062e-08
-1.07377e-08
-1.03245e-08
-1.58995e-08
1.59115e-08
-2.32699e-11
1.1319e-11
-1.64457e-08
1.64583e-08
-2.39506e-11
1.13348e-11
2.27886e-08
-7.79297e-10
-1.19893e-09
-2.08103e-08
-1.10582e-08
2.06281e-08
-1.66751e-08
7.10516e-09
-1.30775e-08
2.14876e-08
-1.59882e-08
7.57818e-09
-1.26837e-08
2.06847e-08
-1.54805e-08
7.47955e-09
1.56328e-08
2.04083e-11
-4.24712e-11
-1.5633e-08
1.56402e-08
-3.48901e-12
-3.70726e-12
-1.58736e-08
1.58897e-08
-2.64347e-11
1.03287e-11
-1.64194e-08
1.6436e-08
-2.71214e-11
1.05351e-11
1.04381e-08
-1.04483e-08
-1.58565e-08
1.58739e-08
-2.60936e-11
8.71519e-12
-1.64017e-08
1.64195e-08
-2.68735e-11
9.09992e-12
9.30138e-12
1.07424e-11
3.1051e-11
1.19201e-11
1.56221e-08
-1.56172e-08
7.78069e-12
-1.26362e-11
-2.0827e-09
-7.63394e-09
7.30022e-09
-1.58429e-08
1.58573e-08
-3.51976e-11
2.08151e-11
-1.63874e-08
1.64017e-08
-3.60554e-11
2.17349e-11
1.2099e-10
-1.60633e-08
1.5597e-08
-1.55939e-08
1.35822e-11
-1.66327e-11
-4.00261e-09
3.65046e-09
1.98318e-08
1.26515e-11
-1.28334e-11
-1.5793e-08
1.58357e-08
-4.18816e-11
-7.29755e-13
-1.63353e-08
1.638e-08
-4.33159e-11
-1.38176e-12
1.56324e-08
-1.03092e-12
8.77233e-12
-1.10606e-08
-1.07332e-08
-3.38439e-09
-2.25975e-10
1.54284e-10
-1.0301e-08
1.04137e-08
-1.04181e-08
-1.55629e-08
1.55767e-08
1.40971e-11
-2.79054e-11
-1.57764e-08
1.5818e-08
-2.79729e-11
-1.36169e-11
-1.63192e-08
1.63625e-08
-2.90679e-11
-1.42478e-11
1.59409e-08
-9.09687e-12
2.00827e-11
1.6487e-08
-1.0174e-11
2.14797e-11
1.20242e-11
8.54955e-12
8.29559e-12
1.45677e-11
-1.57675e-08
1.57903e-08
-2.60985e-11
3.33969e-12
-1.63107e-08
1.63339e-08
-2.65221e-11
3.31164e-12
-1.55311e-08
1.55505e-08
-1.6706e-12
-1.77266e-11
-1.57451e-08
1.57748e-08
-3.72286e-11
7.43922e-12
-1.62866e-08
1.63162e-08
-3.82777e-11
8.69609e-12
-1.55208e-08
1.55334e-08
1.65509e-11
-2.91784e-11
-1.03893e-08
1.03841e-08
1.56132e-08
-7.23232e-12
1.61811e-11
1.11268e-08
-1.1137e-08
1.07915e-08
-1.08015e-08
-1.57104e-08
1.5757e-08
-3.08984e-11
-1.57221e-11
-1.62499e-08
1.62988e-08
-3.24462e-11
-1.64643e-11
-1.63114e-09
1.51564e-09
8.28235e-09
-8.16684e-09
-1.5475e-08
1.54972e-08
9.37401e-12
-3.15956e-11
-1.03204e-08
-1.5702e-08
1.57324e-08
-2.71681e-11
-3.18872e-12
-1.62426e-08
1.62731e-08
-2.7588e-11
-2.90592e-12
-2.57273e-09
1.32335e-09
-1.28938e-08
1.05068e-11
5.75087e-12
1.11667e-11
3.72225e-12
-4.18829e-12
1.93865e-11
-5.79684e-10
5.9391e-10
-1.5437e-08
1.54636e-08
2.14492e-13
-2.67511e-11
-3.61752e-09
-2.22467e-09
2.89639e-09
-1.61324e-08
1.59586e-08
1.35836e-10
3.79755e-11
-1.55976e-08
1.54301e-08
1.35524e-10
3.20003e-11
-1.47569e-08
-7.1703e-09
7.40995e-09
1.45173e-08
1.67742e-09
-7.90363e-09
-6.19456e-10
6.84567e-09
1.55884e-08
-1.19909e-11
2.05274e-11
-1.54057e-08
1.54447e-08
-1.20106e-11
-2.7048e-11
-1.53839e-08
1.54193e-08
-4.29518e-12
-3.11021e-11
-1.03111e-08
-1.53545e-08
1.54019e-08
-1.9616e-11
-2.78141e-11
-1.48459e-09
-5.82187e-09
1.36977e-09
5.9367e-09
-1.53406e-08
1.53987e-08
-4.86535e-11
-9.4782e-12
3.45578e-11
-6.33278e-12
3.62104e-11
-7.08784e-12
-7.5583e-09
7.15302e-09
-5.69145e-12
2.49365e-11
8.69475e-09
-1.06873e-08
1.44102e-08
-1.7352e-08
-6.12356e-09
1.46764e-08
-1.55503e-08
2.87461e-11
-9.52321e-12
5.70363e-09
2.69595e-09
-5.89943e-09
-2.50014e-09
1.19144e-08
7.08169e-09
-4.93796e-09
-1.40582e-08
2.99883e-11
-5.46143e-13
3.09291e-11
-1.05509e-12
-1.03672e-09
-8.06996e-09
5.66128e-10
5.06847e-09
-1.38902e-08
1.63196e-08
-7.4978e-09
1.53164e-10
-1.76812e-10
-1.85682e-10
2.0933e-10
1.91579e-10
-9.12682e-10
8.1958e-11
-1.58176e-08
3.88298e-11
-1.43165e-11
-1.63605e-08
3.9998e-11
-1.48148e-11
-8.06491e-12
3.35601e-11
-1.16662e-10
7.49697e-11
-1.54956e-08
3.44864e-11
-1.38863e-11
2.94347e-11
8.41884e-12
3.03207e-11
8.57309e-12
4.47436e-10
-3.20545e-10
-2.8274e-10
-1.10875e-08
1.10488e-08
-1.0716e-08
1.07026e-08
3.44799e-10
-1.68579e-08
2.45473e-10
-1.57903e-08
1.5179e-11
-1.28351e-12
-1.63335e-08
1.55092e-11
-1.27561e-12
4.25477e-10
-4.39174e-09
-8.41953e-10
-4.1098e-12
3.05339e-11
-1.69344e-08
3.8633e-11
1.69289e-08
-3.31274e-11
8.08533e-10
5.07612e-09
-1.57069e-08
9.82228e-09
1.20175e-09
-1.5919e-09
-5.05448e-09
5.44463e-09
-1.5459e-08
3.41963e-11
-1.22316e-11
-1.67231e-08
-4.307e-11
6.63614e-11
3.80519e-10
-4.30092e-10
2.58372e-11
7.33376e-12
2.66696e-11
7.60056e-12
-1.47476e-08
-6.30772e-10
1.85788e-08
-1.54276e-08
3.19253e-11
-9.9527e-12
4.04692e-12
2.56876e-11
2.89514e-11
2.04205e-12
3.01185e-11
1.96294e-12
7.75477e-09
-1.85116e-09
6.45017e-10
1.885e-09
1.72977e-08
-1.57226e-08
2.29049e-11
-1.06325e-11
-1.62623e-08
2.35655e-11
-1.11838e-11
1.31509e-08
-1.39497e-08
-3.75113e-09
4.54985e-09
-1.54056e-08
3.46868e-11
-1.29834e-11
7.15085e-13
3.71034e-11
4.77391e-11
-7.99718e-12
4.95451e-11
-8.26216e-12
3.32665e-10
3.4689e-10
-4.2074e-10
7.41408e-09
-1.11853e-09
-1.07264e-09
-5.22291e-09
-1.53777e-08
2.92469e-11
-6.03478e-12
-5.80614e-09
3.7686e-09
-5.62683e-09
3.57244e-09
-5.37073e-09
3.45035e-09
3.28415e-10
-2.06436e-10
1.06468e-09
-1.18666e-09
-1.34844e-09
4.48097e-10
1.79975e-08
-1.41453e-09
4.77593e-10
1.86289e-08
-4.44148e-10
-1.07429e-09
2.81453e-10
1.23698e-09
3.32294e-12
3.48474e-11
2.75216e-11
1.78034e-11
2.84646e-11
1.80427e-11
-1.56585e-08
3.2804e-11
2.80467e-11
-1.6196e-08
3.60722e-11
2.74903e-11
1.79174e-09
-1.7707e-09
-7.42925e-10
7.21885e-10
-1.18912e-08
8.29045e-09
1.07148e-08
-9.70513e-09
-1.0097e-09
-8.14954e-09
7.67817e-09
-1.41788e-09
6.86946e-10
1.13093e-08
-1.05783e-08
-2.46199e-10
9.56701e-11
-2.60317e-10
1.04332e-10
-2.77385e-11
-8.35286e-09
4.11412e-10
7.96919e-09
-1.53657e-08
2.1905e-11
3.26066e-12
-2.01666e-11
5.44552e-11
-1.89681e-11
5.21817e-11
1.32909e-08
-2.13294e-08
3.87212e-09
4.1663e-09
1.28552e-08
-2.0618e-08
3.76872e-09
3.99403e-09
1.12697e-08
-1.55682e-08
1.89436e-10
4.10905e-09
-8.91999e-10
2.69714e-10
1.13318e-09
-5.109e-10
-2.69008e-11
5.45748e-11
-2.57421e-11
5.27099e-11
-2.64633e-11
5.29481e-11
-2.55327e-11
5.13329e-11
-1.86836e-11
4.44286e-11
-1.82144e-11
4.31014e-11
-1.33868e-11
3.97734e-11
-1.29636e-11
3.83992e-11
7.69518e-12
2.82557e-11
2.71516e-11
2.33462e-11
2.81066e-11
2.3735e-11
1.6059e-08
-1.10676e-08
7.0629e-09
-1.20542e-08
1.55087e-08
-1.07047e-08
6.85974e-09
-1.16638e-08
-1.10316e-08
-1.10064e-08
-1.06248e-08
-3.09671e-09
-2.28536e-08
2.71986e-08
-1.24831e-09
5.40764e-11
-2.67862e-11
5.20227e-11
-2.58747e-11
-1.80637e-08
6.61146e-09
1.49656e-08
-3.51338e-09
2.69662e-09
8.57934e-09
-6.78008e-09
-4.49588e-09
1.44477e-09
-1.19715e-09
3.7691e-10
3.73054e-11
7.92819e-12
3.90113e-11
8.25177e-12
3.86028e-10
5.52677e-10
-6.0604e-10
1.62343e-08
-1.75113e-08
1.53952e-08
8.39136e-10
1.57098e-10
1.74783e-09
-3.00402e-10
1.17884e-11
5.58149e-11
3.06044e-11
-6.52532e-12
1.17843e-11
2.7351e-11
-3.81078e-09
3.77689e-09
-7.173e-09
7.20689e-09
-8.06705e-09
-1.36233e-10
-1.49057e-09
9.69385e-09
-5.91178e-09
2.60883e-09
5.99957e-09
-1.80931e-08
-4.6508e-09
-1.74899e-08
-4.47656e-09
-3.30159e-11
4.46256e-11
-2.13871e-11
3.79768e-11
-5.07612e-09
7.73008e-09
-7.30114e-09
4.06737e-11
1.15354e-11
4.21509e-11
1.18035e-11
-2.16887e-11
3.46031e-11
-1.7633e-08
1.74194e-08
5.58389e-10
3.39802e-11
-2.10883e-11
-1.60782e-09
2.54389e-09
1.39097e-09
-2.32703e-09
1.6657e-10
2.3503e-09
8.05955e-10
7.44965e-10
-1.17038e-09
-3.80543e-10
5.428e-10
-5.28979e-10
-4.42545e-10
4.28723e-10
1.19872e-09
-1.46433e-09
-2.48054e-09
2.74615e-09
-1.06073e-08
-2.38793e-09
-4.24907e-09
-7.11806e-09
4.59414e-09
6.77298e-09
-8.21196e-09
1.26904e-11
2.88942e-11
-1.64976e-08
1.65728e-10
1.01975e-09
-4.78533e-09
-6.16063e-10
4.38164e-09
1.0302e-08
-2.60164e-09
-9.49052e-09
1.7902e-09
-4.87334e-09
6.75878e-09
1.75916e-08
-1.94771e-08
-2.98313e-10
3.86993e-10
2.5821e-10
5.14963e-10
1.67688e-08
-1.69515e-08
-6.92304e-10
8.59656e-10
-7.64283e-09
3.05108e-11
2.44694e-11
3.12322e-11
2.49806e-11
-7.86567e-09
-1.57732e-10
-4.3649e-11
-1.62481e-08
1.74324e-08
-3.08527e-09
1.9009e-09
2.96466e-10
-4.83242e-09
3.81084e-09
7.25113e-10
-1.53592e-08
-9.7811e-11
1.53331e-08
1.23838e-10
-7.66519e-09
-5.33664e-09
5.60893e-09
7.3929e-09
-1.79442e-09
1.06562e-09
-1.63201e-10
-1.70401e-09
-2.14662e-10
1.2425e-10
1.47797e-09
-1.75002e-08
-8.35656e-10
2.20578e-09
-7.19042e-09
-3.88587e-10
5.37323e-09
-1.32259e-11
1.69615e-08
-1.22388e-11
1.63948e-08
1.97034e-11
1.64585e-11
-1.11597e-08
-4.70635e-09
3.02636e-09
-4.2655e-09
7.03994e-09
-7.0235e-09
3.49527e-11
3.89393e-11
3.72529e-11
3.98674e-11
6.81431e-11
1.2672e-09
-8.30184e-09
-1.31268e-09
8.36861e-09
-4.23898e-09
7.06803e-09
-7.09455e-09
-9.65078e-12
1.61306e-08
-1.65773e-09
2.91318e-11
1.61301e-08
-3.50455e-09
5.14973e-09
1.16525e-08
-1.32976e-08
9.52447e-09
6.33374e-10
-7.95207e-09
-1.92658e-11
1.61071e-08
-2.9251e-11
1.6842e-08
-2.83005e-11
1.62792e-08
-1.12445e-08
-3.2654e-09
1.10054e-08
2.74875e-09
8.71302e-10
-2.42132e-09
-2.37645e-11
1.62389e-08
-2.45616e-11
1.68001e-08
-2.068e-11
1.60831e-08
-1.87542e-11
1.62098e-08
-1.92084e-11
1.67701e-08
5.22908e-09
-4.77874e-09
7.51415e-10
-2.7751e-11
1.61508e-08
-2.79668e-11
1.67111e-08
-1.14992e-11
1.61182e-08
-1.04115e-11
1.66828e-08
-4.13843e-12
1.61049e-08
2.04347e-11
1.66934e-08
-2.32735e-11
1.60506e-08
-4.09999e-09
6.63548e-09
-6.77448e-09
-6.31217e-11
-2.0311e-11
-5.2348e-10
-2.96873e-10
4.89842e-10
3.3051e-10
-1.63562e-09
1.07641e-08
-1.05464e-08
-2.58551e-11
1.60128e-08
3.37142e-10
-1.25773e-10
6.46664e-11
3.82046e-09
1.23118e-09
-4.03189e-09
-1.67221e-08
1.07854e-10
-1.52048e-08
-1.13616e-10
1.53949e-08
-1.78756e-08
-1.01277e-09
-1.72738e-08
-9.73165e-10
1.21261e-10
-8.83553e-09
9.13201e-09
-4.17737e-10
1.47813e-09
8.0186e-09
-1.00836e-08
1.21097e-08
9.41868e-09
-1.14447e-08
2.0373e-10
-3.10594e-10
-1.28935e-10
2.35799e-10
-1.6105e-11
1.58877e-08
-2.16778e-11
1.58673e-08
-8.03912e-12
1.58581e-08
6.6826e-11
-1.66769e-09
2.94261e-10
1.30661e-09
2.70982e-11
1.59713e-08
4.15109e-11
1.58856e-08
1.28766e-08
-1.27644e-08
-7.78138e-09
7.66914e-09
8.51957e-09
8.80777e-09
-5.9424e-09
1.03902e-08
-1.05957e-08
8.92464e-10
-3.32132e-10
1.94681e-10
-7.91288e-09
-2.35711e-09
2.11797e-09
8.15202e-09
7.95504e-09
-1.01291e-08
9.97637e-09
-7.80229e-09
-7.75295e-09
3.34155e-13
9.74841e-10
5.62401e-11
-1.03142e-09
-2.56128e-09
1.68343e-09
2.74588e-09
-1.86803e-09
-6.92725e-09
1.75105e-09
8.96407e-12
5.16723e-09
3.28156e-09
-3.04785e-09
-3.29522e-09
3.06152e-09
-2.21193e-08
1.90854e-08
3.03394e-09
6.26389e-09
3.81039e-09
-3.07039e-09
-7.00389e-09
-1.43649e-09
-1.7106e-08
1.73552e-08
2.1913e-10
3.10529e-09
1.80192e-09
-1.63517e-09
-3.27204e-09
8.49778e-09
7.3619e-09
-1.04898e-08
-9.37045e-09
7.54567e-09
1.23146e-08
2.15125e-09
-1.31886e-08
2.53341e-10
1.25275e-10
-1.59486e-10
8.35237e-09
-8.99607e-09
1.56905e-08
-7.11729e-09
6.65219e-09
5.79587e-09
-5.33077e-09
2.27072e-10
-7.77235e-09
-4.09821e-10
7.9551e-09
-9.45354e-09
1.68244e-09
-2.14184e-09
9.91294e-09
-4.58013e-10
7.65707e-09
-7.82755e-09
6.28491e-10
-1.26764e-10
5.77421e-09
-7.29965e-09
-6.13975e-09
-1.0931e-08
1.07347e-08
5.06338e-09
-4.40828e-09
-4.75508e-09
2.94741e-10
-6.49084e-10
5.48339e-10
-1.93996e-10
-1.8626e-08
1.11469e-09
3.25622e-09
-3.4705e-10
-4.17527e-09
1.26609e-09
1.9734e-09
-2.00902e-09
8.49687e-10
-8.14067e-10
-1.19967e-08
1.61644e-08
-9.4536e-09
5.28592e-09
1.61662e-10
4.27357e-10
7.0516e-09
-7.64062e-09
-1.60163e-09
5.44917e-09
2.03027e-09
-5.8778e-09
4.01975e-09
2.78508e-09
-3.17335e-09
-3.63148e-09
8.08947e-10
3.88905e-09
-8.77542e-10
-3.32044e-09
-8.5658e-09
2.4327e-09
6.52907e-11
-1.6762e-08
-1.23828e-10
1.80198e-10
-5.63701e-11
5.84301e-11
-1.88867e-11
-3.32717e-09
-3.59912e-10
4.20225e-10
3.26686e-09
2.53448e-09
-1.36447e-08
1.64513e-09
-1.75915e-08
1.12234e-10
-1.69644e-08
-8.21811e-11
-5.1282e-10
-1.12772e-08
1.13488e-08
4.41247e-10
-7.80402e-10
4.47199e-10
6.27944e-10
7.97376e-09
-4.45523e-10
6.24533e-10
-8.15277e-09
1.30601e-09
-1.14756e-09
1.81495e-09
7.2889e-10
3.83817e-09
-7.06041e-09
2.49335e-09
-2.474e-10
2.8198e-10
-3.458e-11
-9.97477e-11
1.52046e-10
3.34694e-10
-2.38476e-09
-1.78434e-09
-2.03987e-09
9.76687e-11
-1.47204e-09
-5.74745e-10
5.15207e-09
-4.25178e-09
8.52755e-09
-1.13931e-08
-4.11614e-10
6.13608e-10
-3.7886e-10
1.76865e-10
-8.32989e-09
8.02943e-09
7.65946e-10
-4.65486e-10
-5.51753e-10
-1.1695e-09
-9.40833e-09
-1.22098e-09
1.23118e-08
1.04142e-08
-1.05577e-08
-3.4992e-10
-7.43895e-10
2.1916e-10
-1.24349e-10
-3.09936e-10
-4.01918e-10
-7.67832e-09
6.49561e-10
1.02941e-10
2.50752e-11
-8.71911e-10
-1.27461e-08
7.16108e-09
4.83208e-09
-4.19401e-09
9.67681e-09
-1.03149e-08
-2.50144e-08
1.82941e-08
-1.06285e-09
2.46723e-09
5.85339e-09
-7.25778e-09
-7.13708e-11
-5.2457e-11
-7.80273e-09
1.00429e-08
-2.24012e-09
-6.28611e-10
7.37905e-10
9.63051e-10
-1.07235e-09
-7.82649e-09
7.86195e-09
-1.36209e-10
1.00747e-10
2.14643e-09
2.77397e-09
-2.15876e-09
-2.76164e-09
-6.25174e-10
1.09515e-08
-7.25699e-10
-9.60066e-09
-1.05924e-09
9.35679e-10
-5.05054e-10
1.25114e-09
-2.0206e-09
5.04125e-09
-4.73474e-09
8.11992e-09
-8.42643e-09
-2.95994e-09
1.08172e-08
-7.85728e-09
-4.25117e-10
1.52344e-09
3.78512e-10
-1.47684e-09
-7.83662e-09
-1.27734e-09
1.20108e-09
1.81223e-09
-1.97797e-09
-4.89214e-11
-1.72765e-08
-2.43489e-10
-1.78782e-08
-2.57754e-10
3.97201e-09
4.14006e-09
-4.01135e-09
1.365e-09
-1.23342e-08
1.31204e-08
-7.81051e-09
4.01254e-10
8.72502e-09
-7.06665e-09
-8.17328e-09
6.51492e-09
-5.36491e-11
7.82359e-10
-5.11329e-10
-2.17381e-10
3.47359e-09
-1.24075e-09
5.15914e-10
3.83662e-09
-3.94527e-09
6.54793e-09
-6.43928e-09
6.11672e-09
-7.26725e-09
-8.6673e-09
2.27678e-10
-1.7033e-08
1.69872e-08
9.07271e-10
-9.93848e-10
8.24482e-10
-3.2173e-10
-7.8864e-09
8.0504e-09
2.76299e-09
-2.19919e-09
6.01031e-10
2.46946e-09
5.13108e-10
3.40994e-09
-1.77662e-09
-4.5072e-10
-1.64209e-09
2.81713e-09
-2.94592e-09
2.34745e-09
-2.21866e-09
1.58489e-09
6.41421e-11
-3.14702e-09
4.25702e-09
-3.04806e-09
1.93806e-09
4.95803e-10
2.63399e-10
-2.10863e-10
4.35368e-10
7.17806e-09
-8.09466e-09
3.75174e-10
2.88596e-09
1.94024e-09
-1.35261e-09
-3.31881e-10
2.50328e-10
3.16266e-09
-3.08111e-09
-9.81039e-10
7.76815e-10
-1.99497e-09
-7.85422e-09
-5.62169e-10
4.32772e-09
8.88188e-10
-9.84976e-10
-4.23093e-09
4.69537e-10
-3.02295e-09
2.34255e-09
2.10865e-10
4.75099e-10
-3.91592e-10
6.33998e-10
-7.17505e-10
-4.48363e-09
4.63777e-09
4.99032e-10
5.48558e-09
-2.14645e-09
9.01208e-11
6.40823e-09
-1.26927e-09
3.32797e-10
-7.85203e-09
-3.34986e-10
1.89456e-09
2.03817e-09
-3.08304e-09
-8.25239e-09
-1.08617e-09
-2.06019e-09
-1.24305e-08
7.88436e-09
1.35839e-09
4.59313e-10
1.07307e-08
-1.26542e-08
1.41068e-09
-1.2129e-09
3.23479e-09
-2.35376e-09
-6.84376e-09
7.13764e-09
5.48033e-09
-2.61089e-09
3.22213e-10
-6.15405e-09
-4.52825e-09
1.03601e-08
-8.3562e-10
2.74379e-10
-2.09015e-09
2.21338e-09
-1.76235e-08
-8.96866e-10
8.95936e-09
1.294e-09
-1.44916e-09
1.04803e-08
1.69957e-09
-7.63242e-09
7.33703e-09
8.47631e-10
-3.36586e-09
-8.52767e-09
-6.89382e-11
4.47743e-10
8.14886e-09
7.13573e-10
4.74783e-10
-7.3136e-10
-1.4384e-10
-2.13199e-09
-7.47125e-10
1.82509e-09
-1.75435e-09
2.67513e-09
-8.60849e-10
1.2817e-10
8.59057e-10
-6.99819e-10
-5.58776e-10
-7.58047e-09
-1.50631e-09
1.01682e-09
-3.76899e-10
4.01851e-10
1.71725e-09
-1.0122e-08
7.58808e-10
7.93899e-09
1.42419e-09
9.00595e-09
-4.13696e-09
-9.12077e-09
2.72284e-10
-4.11049e-11
1.98314e-09
-7.06278e-10
-1.41098e-10
4.35762e-10
2.91653e-09
1.95853e-10
-8.78538e-09
-3.68725e-09
1.18475e-08
5.38567e-09
3.70398e-09
1.71344e-10
5.87531e-10
-8.12524e-10
-9.44774e-09
8.38053e-09
9.79223e-09
-6.2791e-09
-2.26173e-09
2.15023e-09
6.3906e-09
9.26161e-09
-8.01882e-10
-7.2164e-10
1.14344e-11
-1.50644e-10
-7.71612e-09
1.16709e-10
3.79467e-09
1.85992e-10
-4.45736e-09
-5.04231e-09
4.65498e-09
4.84469e-09
8.40179e-09
1.56994e-10
-5.6652e-11
-1.00342e-10
-1.11032e-10
2.69495e-10
-6.26556e-10
-1.1531e-09
7.20423e-10
-6.94057e-09
-2.66499e-09
7.58645e-09
2.0191e-09
-2.5934e-09
4.67894e-09
8.40958e-10
-2.9265e-09
2.40739e-10
-2.69546e-10
2.68521e-10
-2.39714e-10
-1.27245e-08
1.0502e-08
1.35256e-10
2.08724e-09
-1.64745e-08
1.64419e-08
8.86794e-10
-5.06795e-10
4.54996e-10
-8.34995e-10
3.08975e-09
-8.77017e-09
-7.04411e-09
1.21812e-09
4.64768e-09
-4.95107e-09
-9.14732e-10
7.70456e-10
-6.76197e-10
-6.32369e-10
5.3811e-10
-6.7662e-09
-4.63173e-09
2.74713e-10
-9.4515e-11
-3.81271e-10
2.58316e-10
5.98054e-10
-4.01389e-10
6.1694e-10
9.04606e-09
-9.26572e-10
8.86321e-09
7.6999e-09
1.19315e-09
-8.08602e-09
-8.07021e-10
-1.48438e-09
3.64574e-09
1.9787e-09
-6.07527e-09
5.33597e-09
-5.87695e-11
2.15764e-10
-2.92215e-09
7.13865e-10
3.05591e-09
4.1711e-10
2.60529e-11
-4.43163e-10
7.07846e-09
-6.94136e-09
4.00224e-09
-4.73102e-10
7.90352e-09
-4.25592e-10
-7.92345e-09
1.79131e-10
-1.02355e-10
-2.67054e-10
1.90279e-10
1.83147e-09
1.34666e-09
-1.19143e-09
-1.55233e-10
-5.46961e-09
6.04728e-09
-5.77669e-10
-7.60897e-10
1.09568e-10
3.48318e-09
-2.83185e-09
-8.58411e-11
-1.31897e-09
5.95339e-09
2.07138e-09
2.8667e-10
1.59765e-09
-1.1169e-08
9.74119e-10
1.15599e-08
-1.67637e-08
-3.76405e-11
3.93569e-11
-1.2248e-09
5.23823e-09
-5.61506e-09
-3.90358e-10
-1.85452e-10
-7.14031e-09
-1.26938e-09
-7.55809e-09
7.8803e-09
-1.48691e-09
1.38886e-09
2.59029e-10
-1.60985e-10
-8.30214e-09
-3.0542e-09
4.28969e-09
-7.84835e-10
5.51945e-10
9.58958e-09
-5.08471e-09
-3.84899e-10
4.14024e-09
4.50398e-09
-4.8076e-09
-3.24171e-09
2.26372e-10
3.01534e-09
1.07737e-09
-7.56925e-09
1.61954e-09
1.58104e-09
-4.2333e-09
4.65877e-09
-6.80541e-09
-9.97318e-10
1.26622e-08
-7.53242e-09
-1.26971e-08
7.56735e-09
-1.16348e-08