/*--------------------------------*- C++ -*----------------------------------*\
  =========                 |
  \\      /  F ield         | OpenFOAM: The Open Source CFD Toolbox
   \\    /   O peration     | Website:  https://openfoam.org
    \\  /    A nd           | Version:  8
     \\/     M anipulation  |
\*---------------------------------------------------------------------------*/
FoamFile
{
    version     2.0;
    format      ascii;
    class       volVectorField;
    location    "4.4";
    object      U;
}
// * * * * * * * * * * * * * * * * * * * * * * * * * * * * * * * * * * * * * //

dimensions      [0 1 -1 0 0 0 0];

internalField   nonuniform List<vector> 
4320
(
(0.000642073 0.00170059 3.95769e-22)
(0.000499947 0.0012791 1.31997e-22)
(0.000480889 0.00126719 0)
(3.47391e-05 4.52154e-07 6.95897e-22)
(0.000657289 -1.65582e-05 0)
(0.000661534 0.00180642 0)
(0.00070611 0.00189003 1.13503e-22)
(0.000677596 0.0019082 6.91918e-24)
(0.000125307 0.00152964 -9.64918e-22)
(0.000578014 0.0016704 -2.50887e-22)
(0.000668737 0.00178905 -2.5948e-22)
(0.000676151 0.00177265 -1.83879e-24)
(0.000663017 0.00178929 2.5694e-22)
(0.000602596 0.00169965 1.10282e-21)
(0.00082845 0.000820563 1.62196e-21)
(0.000672224 0.00178454 5.70305e-22)
(0.000394248 0.00118003 -2.54631e-21)
(0.000308033 0.000654325 -3.49157e-21)
(0.000670911 0.00178659 -3.87719e-24)
(0.000673035 0.0017851 0)
(0.000673669 0.00178498 7.7539e-22)
(0.000660213 0.00190143 6.25487e-22)
(0.000421164 0.000515041 3.80753e-21)
(0.000616479 0.00177593 -2.93493e-22)
(0.000641365 0.00168613 8.65818e-22)
(0.000702269 0.00185804 1.87367e-21)
(0.000658353 0.00169476 2.10548e-21)
(0.000669879 0.0017351 -2.03162e-22)
(0.000622598 0.00176911 -6.301e-22)
(0.000484068 3.59525e-05 1.37637e-21)
(0.000641789 0.00174431 -5.15066e-22)
(0.000661087 0.00190177 0)
(0.000670408 0.00190097 5.78991e-24)
(0.00058033 0.00170544 -2.46173e-21)
(0.000457711 0.00129152 -2.98348e-23)
(0.000617902 0.00183981 2.10706e-23)
(0.000673025 0.00178432 -7.26777e-22)
(0.000672233 0.00179359 -1.89214e-22)
(0.00110659 7.38877e-06 1.70727e-22)
(0.000431408 0.00124642 1.09951e-21)
(0.000627095 0.00174537 -2.25814e-22)
(0.000652643 0.00174459 4.7333e-22)
(0.000453981 0.000167563 0)
(0.000630266 0.00159364 1.9987e-21)
(7.78957e-05 0.000728191 7.43724e-22)
(0.000628292 0.00179801 4.66523e-22)
(0.000362654 0.00205907 4.68056e-23)
(0.000631394 0.00171269 -1.22865e-22)
(7.01706e-05 0.000871515 -3.2743e-22)
(0.000672462 0.00178005 0)
(0.00063983 0.0017848 0)
(0.000639053 0.00178729 3.23518e-22)
(0.000742089 -8.05418e-05 6.71663e-22)
(0.000137141 0.00097951 0)
(0.000116909 0.00168729 -1.7519e-21)
(0.000654046 0.0017144 -2.88382e-22)
(0.000571729 0.0016825 2.76633e-22)
(0.00059762 0.00171538 -2.70342e-21)
(0.000238299 0.0015691 -5.95362e-24)
(0.000259314 6.67955e-05 4.78103e-22)
(0.000674303 0.00178418 -3.28581e-22)
(0.000600246 0.00180705 -3.61137e-22)
(0.000600329 0.00178812 2.11403e-22)
(0.000673511 0.00178361 -5.02894e-22)
(0.000895089 -0.000438075 1.3139e-22)
(0.000617009 0.00179389 0)
(0.000435647 0.000155595 4.72831e-21)
(0.000622131 0.00170391 7.87465e-22)
(0.000580796 0.00162617 3.06015e-22)
(0.00062461 0.00187586 -1.00631e-22)
(0.000500743 0.00123713 1.01715e-24)
(0.000669808 0.00191157 1.75843e-21)
(0.000669886 0.00163835 7.45442e-22)
(0.00067154 0.00171308 6.76509e-23)
(0.000669451 0.00177639 0)
(0.000646267 0.00171002 -3.06005e-22)
(0.000488553 0.00131335 -9.05085e-23)
(0.000408926 0.000882337 -1.89693e-21)
(9.91552e-05 0.000236562 1.00016e-23)
(0.000804541 -0.000102086 0)
(0.00065593 0.00177637 -1.3677e-22)
(0.00042196 0.00124674 1.63977e-21)
(0.000456952 0.00127172 -8.48737e-22)
(0.000669482 0.00179005 -7.37343e-22)
(9.12941e-05 0.00021313 -2.55972e-21)
(0.000450222 0.00122357 3.64331e-23)
(9.58617e-05 0.000173182 -2.48663e-21)
(0.000656379 0.00171355 8.82658e-22)
(0.00107741 5.41114e-05 0)
(0.000651252 0.00192378 1.61645e-21)
(0.000868233 -0.000217265 -2.20304e-22)
(0.000718829 0.00189445 0)
(0.00126866 0.00016993 4.1162e-21)
(0.000194758 -5.05847e-07 -2.37249e-21)
(0.000615804 0.00170397 -1.96524e-22)
(0.000592708 0.00175693 4.82809e-24)
(0.000442408 0.0012523 7.03711e-24)
(0.000673093 0.00178419 1.74278e-22)
(0.000676037 0.00178862 4.45404e-24)
(0.00102383 0.000852138 -1.23816e-21)
(7.74363e-05 0.000172032 0)
(0.000666181 0.00177352 0)
(0.000644302 0.00191606 4.37746e-22)
(0.000510903 0.00133604 -1.61478e-21)
(0.000388684 0.00170992 -5.58686e-24)
(0.000435155 0.00129988 2.18526e-21)
(0.000439755 0.00125315 9.37242e-22)
(0.000482978 -9.52056e-05 1.05809e-24)
(4.63699e-05 0.00072682 1.04106e-21)
(0.000421475 0.00127165 6.40458e-24)
(0.000988258 -0.000102496 0)
(0.000662964 0.00191523 3.44582e-22)
(0.000635806 0.00176861 -1.86706e-21)
(0.000673395 0.00189552 0)
(0.000646787 0.00165413 -9.05944e-22)
(0.000632866 0.00177262 -9.1655e-23)
(0.000191236 0.000873042 -7.59767e-22)
(0.000638071 0.00105785 1.96393e-21)
(3.48522e-05 7.63534e-05 2.76995e-21)
(0.000473145 0.00169759 -1.38322e-23)
(0.000658898 0.00187042 -1.29465e-21)
(0.000432509 0.00124638 0)
(0.000590405 0.00178575 1.12184e-22)
(0.000595713 0.000840683 0)
(0.000681034 0.00189068 4.85142e-22)
(0.000670809 0.00191146 -1.39953e-21)
(0.000713074 0.00199466 -1.35456e-22)
(0.000668165 0.00177037 5.1158e-22)
(0.000665963 0.00171486 -8.59102e-22)
(0.000662487 0.00171404 5.85105e-22)
(0.000617725 0.00176389 -4.13729e-24)
(0.000655444 0.00191173 2.68702e-21)
(0.000493647 0.00135139 1.23193e-23)
(0.000683638 0.00192567 5.30263e-22)
(9.78698e-05 0.000675692 -7.36878e-22)
(0.000211796 5.11535e-05 -7.50945e-22)
(0.000438811 0.0011984 4.9705e-22)
(0.000193237 2.39665e-05 -4.49411e-22)
(0.000626046 0.00167183 0)
(0.00052185 2.35489e-05 -3.37244e-21)
(0.000442538 0.00114487 -4.71672e-22)
(0.00064201 0.00178884 2.19562e-22)
(0.000235756 0.00171598 2.62021e-23)
(0.000230771 0.00160151 -1.12591e-23)
(0.000108275 0.000615579 0)
(0.000609323 0.00175717 -1.13541e-21)
(0.000628466 0.00170918 0)
(1.28473e-05 -1.01095e-05 5.40509e-22)
(0.000563322 0.00174132 0)
(0.000355364 0.00201311 -2.37217e-23)
(0.00067407 0.00178127 -3.10452e-22)
(0.000472993 0.00191674 1.60403e-22)
(0.000613323 0.000747785 1.60912e-21)
(0.000579643 0.000768241 0)
(0.000644281 0.00177498 0)
(0.000706877 0.00202219 -2.45527e-23)
(0.000911314 0.00041498 -5.72143e-21)
(8.17549e-05 0.00096137 8.13803e-22)
(0.000106093 0.00026051 0)
(0.000605738 0.00180228 -1.91398e-22)
(6.47669e-05 0.000137813 0)
(0.000449286 0.00127547 2.33898e-21)
(0.000601363 0.00169132 8.74296e-23)
(0.000580707 0.00177236 -1.34354e-22)
(0.00069784 0.00192664 1.16438e-21)
(0.000639081 0.00172412 -4.62873e-22)
(0.000677399 0.00186145 1.40393e-21)
(0.000239771 0.000875702 1.75744e-21)
(0.00156852 0.00145659 0)
(0.000549593 0.0017209 3.72473e-21)
(0.000600512 0.00170965 0)
(0.000655835 0.00177297 0)
(0.000350251 0.0013541 -1.33473e-22)
(0.000635221 0.001997 3.03923e-23)
(0.000530204 -6.50773e-05 -2.45699e-21)
(0.000393681 0.000736552 -9.52325e-22)
(0.000388907 0.000540431 1.69634e-21)
(0.000747472 0.00193479 5.68206e-21)
(0.000638759 0.00188536 1.81778e-21)
(0.000530177 0.0013369 -4.72149e-22)
(0.000760618 0.000417818 0)
(0.000585022 0.00178962 -1.48927e-21)
(0.000866447 0.000323352 1.54592e-21)
(0.000964715 9.25304e-05 -8.04807e-22)
(0.0011479 0.000641798 -5.11056e-21)
(5.47895e-05 0.00109982 1.0944e-22)
(5.28941e-05 0.000107377 -1.46814e-22)
(0.00054852 0.00203396 1.68393e-22)
(0.000515486 0.00164781 3.62297e-22)
(0.000428895 0.000553672 -3.69754e-21)
(0.000615166 0.00174021 -2.14307e-22)
(0.000663884 0.00171866 -2.98925e-22)
(0.00103007 6.26279e-05 2.31568e-21)
(0.000675735 0.00183575 1.14551e-23)
(0.000972524 -4.87975e-05 -1.32242e-21)
(0.000651593 0.00172539 9.08398e-22)
(0.000650729 0.00184513 -8.25306e-22)
(0.000642253 0.00189828 3.73888e-23)
(0.000639392 0.00178367 4.58824e-22)
(0.000671885 0.00177715 -4.49606e-22)
(0.000891094 0.000348168 -1.89185e-21)
(0.000609069 0.00170836 4.08446e-22)
(0.000650736 0.001698 0)
(0.000641947 0.00171548 5.48797e-22)
(0.000888301 0.00182909 -2.31138e-21)
(0.000481401 0.00149533 0)
(0.000637766 0.0018768 0)
(7.06671e-05 0.000154023 -1.95295e-23)
(0.000547959 0.00174482 0)
(0.00100292 1.67287e-05 0)
(0.000650012 0.00185357 2.39054e-22)
(0.000238839 6.79053e-05 1.41913e-21)
(0.000378308 0.000670627 -2.15263e-21)
(5.90575e-05 0.000122789 0)
(6.2082e-06 1.80065e-05 3.55517e-22)
(4.03843e-05 8.50434e-05 4.92404e-21)
(8.39768e-06 5.96646e-06 3.30914e-22)
(4.5183e-05 9.51566e-05 -2.32781e-21)
(0.000968598 6.87526e-05 -2.8171e-21)
(0.00064008 0.000659855 -4.76495e-21)
(0.000580072 -0.000215813 -2.05555e-21)
(0.000602785 0.00173747 -4.48257e-22)
(0.000216993 3.03786e-05 -2.80097e-22)
(0.000700724 0.00177052 -1.66499e-23)
(0.000692129 0.00185134 8.66367e-22)
(5.48425e-05 0.00054656 0)
(0.000537549 0.000859123 0)
(0.000856155 0.00034399 -8.7283e-22)
(0.000751164 0.000430752 1.97e-21)
(0.000994753 6.86566e-05 1.69899e-24)
(0.000609501 0.00188751 2.213e-22)
(0.00103423 0.000671876 2.02679e-21)
(0.000448059 0.00127462 -7.67382e-22)
(0.000634779 0.0017042 -1.64544e-22)
(0.000656304 0.00178171 0)
(0.000284278 -0.000119376 -9.84911e-25)
(0.000640423 0.00183621 7.96601e-22)
(0.000655316 0.00171348 0)
(0.000634752 0.00176065 -1.2551e-22)
(0.000641502 0.00177448 0)
(0.00118736 0.000238145 -2.48593e-21)
(0.00111287 0.000769175 -3.90652e-21)
(0.000814223 0.00169559 -2.36735e-21)
(0.00070512 0.00188564 -1.95797e-22)
(0.000666094 0.00188099 2.79431e-22)
(0.000271772 0.00192477 0)
(0.000347063 0.000378431 -2.66091e-22)
(0.000499442 0.000108574 2.04215e-21)
(0.00071199 0.00187411 0)
(0.000438784 0.00121702 -3.98587e-22)
(0.000636515 0.00175811 1.83296e-21)
(0.000517145 0.00154615 -5.06266e-23)
(0.000676167 0.00193716 -2.34839e-23)
(0.000713142 0.00196487 -2.52406e-21)
(0.00071975 0.00195732 0)
(0.000664502 0.00159376 1.17005e-21)
(8.05119e-06 3.33881e-05 9.64655e-24)
(0.000644947 0.00175291 -1.12216e-22)
(0.000425729 0.00122743 0)
(0.000612935 0.00179467 1.15307e-22)
(0.000683175 0.0018332 6.78002e-22)
(0.00118788 0.000564552 3.51506e-21)
(0.000757366 0.0018267 -7.29112e-22)
(0.000711267 0.00194164 9.36534e-22)
(0.000433677 0.000304699 4.21473e-21)
(0.000668211 0.00177405 0)
(0.000899696 -0.000152489 -1.62594e-22)
(0.00041759 0.00125103 -1.59042e-22)
(0.00074419 0.00100611 -2.6884e-21)
(0.000470759 2.85664e-05 -1.95397e-21)
(0.000666108 0.0017515 -6.49513e-22)
(9.76076e-06 5.26764e-05 0)
(0.000613013 0.0017394 0)
(0.00103075 0.00199913 0)
(0.000961338 -0.000124914 0)
(0.00066647 0.00178606 -1.69192e-21)
(0.000313361 -0.000136354 -6.19958e-22)
(0.00038865 0.00117608 -6.2342e-22)
(5.10819e-05 -1.64027e-07 2.74164e-21)
(1.11807e-05 6.84904e-05 -3.56171e-22)
(0.000483827 0.000108823 4.49414e-25)
(0.000588779 0.00179708 4.2482e-22)
(0.000630848 0.00189242 -5.30548e-22)
(0.000688978 0.000195527 -4.3078e-21)
(0.000662221 0.00170979 -3.21684e-22)
(0.000700301 0.00188442 5.20357e-22)
(0.000656989 0.0017107 -9.09797e-22)
(0.000167221 -3.29505e-05 -2.33482e-21)
(0.000686406 0.00197773 -2.36899e-22)
(0.000692303 0.000872707 -1.10793e-21)
(0.000674834 0.00178132 6.72174e-22)
(0.000694901 0.00192817 -1.12397e-21)
(6.63045e-06 2.27631e-05 0)
(0.000680988 0.00187737 1.39314e-22)
(0.000977903 0.000369611 -4.31957e-21)
(0.000632333 0.00187666 0)
(0.000643156 0.00179999 -3.22987e-21)
(0.000679546 0.00196211 2.22044e-23)
(0.000609721 0.00197276 2.17061e-23)
(0.000621715 0.00184617 1.06862e-21)
(8.44724e-06 3.92506e-05 -3.08358e-22)
(0.000657215 0.00173614 -1.86831e-22)
(0.00067873 0.00189115 -9.479e-22)
(0.000651417 0.00175762 -3.54771e-22)
(0.000719628 0.00187105 9.17004e-22)
(0.0013638 0.000505487 1.86633e-21)
(0.000695004 0.00190353 -1.29265e-21)
(0.000719705 0.00191538 0)
(0.000706912 0.00194414 -3.06717e-23)
(0.000642358 0.00178692 -2.27084e-22)
(0.000642448 0.00178721 1.87852e-22)
(0.000674233 0.00178838 1.22535e-23)
(0.000411224 0.000990024 -3.728e-21)
(0.000455529 0.000581131 -1.57641e-21)
(0.000662788 0.00174647 6.89349e-22)
(0.000623209 0.00185467 -5.667e-23)
(0.000337013 0.000123861 4.95288e-21)
(0.000680612 0.00177161 0)
(0.000188693 0.000924253 -1.93398e-22)
(0.000633938 0.00169314 1.79899e-22)
(0.000647436 0.0018734 0)
(9.21352e-06 4.57793e-05 -1.08618e-23)
(0.000267486 -0.00021171 0)
(1.07725e-05 6.07532e-05 2.61026e-22)
(0.00169745 0.00191598 -1.0365e-21)
(1.9976e-05 8.03805e-05 8.95672e-22)
(0.000628455 0.00180185 0)
(2.90906e-05 0.000764294 0)
(0.00130982 0.000165919 -4.27749e-22)
(0.000645322 0.00191048 -1.24602e-22)
(0.000671295 0.00175353 -7.28102e-23)
(0.000640947 0.00193128 8.88095e-22)
(0.000644543 0.00192435 7.29234e-22)
(7.23155e-06 2.78518e-05 3.11276e-22)
(0.0011485 0.000529902 4.76149e-21)
(0.000525797 0.00190967 1.22625e-21)
(0.00084455 0.000907378 -1.49087e-21)
(0.000199495 -6.18625e-05 -2.48397e-21)
(0.000661897 0.0017791 -8.487e-22)
(4.61667e-05 0.000330532 -1.91149e-21)
(0.000742417 0.00198061 0)
(0.000639556 0.00177851 -7.74216e-22)
(0.000675345 0.00177336 0)
(0.000768269 0.000923586 0)
(0.000347347 0.000901895 1.53034e-21)
(1.58416e-05 8.13994e-05 -1.48175e-22)
(0.000231977 -0.000180712 4.65026e-21)
(0.00106222 0.000315508 1.30411e-21)
(0.00129251 0.00013526 1.06688e-21)
(0.000124879 0.000238625 -8.40859e-24)
(0.000684575 0.00184906 -6.60639e-22)
(0.000702589 0.00200772 -1.02806e-21)
(0.000190649 4.42399e-05 -4.57313e-22)
(0.00050873 0.00137235 1.89379e-21)
(0.000660194 0.00170503 -6.71905e-24)
(0.000419816 0.000744108 1.57681e-21)
(0.00064425 0.00178731 -1.02313e-21)
(0.000543284 0.00179312 3.62837e-24)
(0.000635706 0.00195364 3.315e-21)
(0.000649021 0.00177752 5.78139e-22)
(0.000274529 0.000835654 0)
(0.000643105 0.00185578 7.06298e-22)
(0.000645499 0.00173061 -2.21641e-22)
(0.000681168 0.000876006 -1.80541e-21)
(0.00039235 0.00185078 -5.29077e-22)
(0.000717758 0.00190191 -2.54532e-22)
(5.85533e-06 1.36554e-05 -6.44856e-22)
(0.000952874 3.33236e-05 0)
(0.000372744 -0.000249389 -7.72996e-22)
(0.000669464 0.00176864 -1.47143e-21)
(0.000676008 0.00176516 -1.38977e-22)
(0.000408846 0.000728445 -1.36292e-21)
(0.000650872 0.00178826 9.1256e-22)
(0.000339059 0.000653275 4.59651e-21)
(0.000481326 0.00163386 3.33658e-22)
(0.000174766 -0.000130208 -1.01675e-21)
(0.000443428 0.00154999 4.80743e-23)
(0.00065863 0.0017376 0)
(0.000229233 8.68002e-05 0)
(0.00069451 0.00190866 -8.32695e-22)
(5.59446e-06 9.08065e-06 1.6182e-22)
(0.000930341 0.00127912 -1.35893e-23)
(0.000991601 0.000460091 1.84759e-21)
(0.000596249 0.00181687 1.50661e-21)
(6.50291e-05 0.000602514 1.65169e-22)
(0.000603368 0.00178667 1.70476e-21)
(-4.81901e-06 7.92825e-05 1.56839e-21)
(0.000476316 -0.000150089 0)
(0.000700952 0.00193409 0)
(6.94531e-05 6.62401e-05 -1.66153e-21)
(0.000688283 0.00208326 -3.04031e-22)
(0.000702919 0.0002582 -1.7504e-21)
(2.67735e-05 4.23765e-06 -3.04057e-22)
(0.000115133 1.93566e-06 1.47536e-21)
(0.000702713 0.00189742 4.12403e-21)
(0.000427148 -3.23363e-05 1.79027e-21)
(0.000644327 0.00177553 2.65908e-22)
(0.00122567 0.000723829 1.44708e-21)
(0.00064055 0.00175133 2.03362e-21)
(0.000678938 0.00177607 -1.23324e-23)
(0.000249234 0.00113991 -2.21823e-21)
(0.000420455 0.000920364 2.44054e-21)
(8.05085e-05 0.000894728 0)
(0.000667114 -0.000168329 3.11595e-21)
(6.25722e-05 5.06427e-05 -9.40179e-22)
(0.000228296 0.00135173 -1.84246e-21)
(0.000549978 0.00180099 -6.4418e-22)
(0.000677254 0.0017735 -8.71255e-22)
(0.000615101 0.00180054 8.02181e-22)
(0.000676017 0.00178291 -6.8014e-22)
(0.000526714 0.00164945 -2.90682e-23)
(0.000862131 0.000538188 0)
(0.000610254 0.000848704 2.98045e-21)
(0.000367288 -0.000145528 -1.06193e-21)
(0.000636002 0.00188638 -1.42685e-21)
(0.000104385 5.37558e-06 2.81884e-26)
(0.000662192 0.00170849 6.07437e-22)
(0.000970242 -2.28271e-06 1.06805e-22)
(0.000826432 0.00115919 -1.16038e-23)
(0.00142558 0.000457578 0)
(0.000540725 0.00155467 -1.88088e-23)
(0.000324835 -8.99225e-05 7.168e-22)
(0.000735325 0.00199575 -8.357e-22)
(0.000149031 -0.000124439 2.95891e-21)
(0.000543923 0.00141585 0)
(0.00112081 0.000470548 -3.404e-21)
(0.000597905 0.00159696 -1.24e-21)
(0.000524645 0.000852004 -6.62912e-22)
(8.13563e-05 6.55967e-05 9.45917e-22)
(0.000968268 3.57235e-05 -5.81967e-22)
(0.000334988 0.000393375 -4.05801e-22)
(0.000648871 0.00178569 0)
(9.95297e-05 1.8521e-05 1.00921e-21)
(0.000299719 0.000455472 -1.39398e-21)
(0.000950169 0.000973071 3.627e-22)
(9.65475e-05 6.60639e-05 -2.43796e-21)
(0.000724457 0.00192943 -5.84596e-21)
(0.000562667 0.00174972 3.84193e-23)
(0.000647803 0.00178875 7.85022e-22)
(0.00102572 2.72421e-05 0)
(0.000648192 0.00179231 0)
(2.73271e-05 -0.000102902 1.23172e-21)
(0.00065288 0.000528845 6.74898e-21)
(4.68369e-05 3.91549e-05 2.35736e-21)
(0.000772441 0.0018563 9.32827e-21)
(1.08364e-05 -3.41268e-05 2.01176e-23)
(0.000632017 0.0016863 -3.94314e-22)
(0.000784886 0.000283281 -5.42293e-21)
(0.000616861 0.00177886 0)
(0.00128145 0.000717076 2.45775e-21)
(0.000619399 0.00186403 3.52925e-22)
(0.000957152 0.000306384 1.72467e-21)
(7.58436e-05 2.71854e-06 1.41482e-21)
(0.00071326 0.00201766 8.15821e-22)
(0.000324683 0.00084809 -1.70633e-21)
(3.91513e-05 6.97247e-05 -2.06384e-21)
(0.000642005 0.00185382 8.78745e-22)
(0.000885343 0.00101845 1.21591e-21)
(0.000959787 1.08135e-05 6.98348e-22)
(4.69463e-05 6.33483e-05 -5.06042e-22)
(0.000124838 -0.000108835 -2.92121e-22)
(0.000625485 0.000470708 -1.90459e-22)
(0.000236443 0.000781589 2.12492e-21)
(0.000634457 0.0018819 4.05899e-22)
(0.000212008 0.00113751 0)
(0.000716856 0.00198986 -2.41597e-21)
(0.000751514 0.00195279 0)
(0.000903085 0.000276436 -3.6543e-21)
(8.26189e-05 0.000822612 -8.758e-22)
(4.16387e-05 6.80681e-05 2.69978e-21)
(0.000659018 0.00182241 -2.73988e-25)
(0.000911565 0.00028131 6.73743e-24)
(0.000856743 0.000778875 0)
(0.000873929 0.000871603 -7.18122e-22)
(0.000667146 0.00177994 0)
(0.000654823 0.00186771 -2.25678e-22)
(0.000653654 0.00173169 0)
(0.00106058 0.000189334 -5.01044e-21)
(0.000854142 0.00141347 6.14288e-23)
(0.00031225 6.36894e-05 1.53542e-21)
(0.000644456 0.00174249 -7.79022e-22)
(4.91052e-05 3.23445e-05 0)
(0.000644299 0.00189627 -2.77065e-24)
(7.87958e-05 0.000136589 2.42378e-21)
(0.000932336 -8.68624e-05 5.73375e-22)
(0.000758639 0.000656206 -2.08337e-21)
(0.000624799 0.00177722 3.3255e-22)
(0.000628469 0.00188157 -1.85621e-22)
(0.000960497 1.62297e-05 2.38497e-22)
(0.0006484 0.00176818 7.57247e-22)
(0.000827709 0.000845347 2.1193e-21)
(3.57887e-05 4.36127e-06 -1.67557e-21)
(0.000722375 0.00202963 -5.13663e-22)
(0.00057789 0.000516953 0)
(-7.77733e-05 0.000578716 3.56764e-21)
(0.00102188 0.000273263 0)
(0.000669728 0.00179009 -8.72187e-22)
(0.00108619 0.000234892 0)
(0.000655784 -0.000202561 2.26012e-22)
(0.000323027 0.000744627 1.12249e-21)
(0.000434118 0.000937736 1.17449e-21)
(0.000777053 0.00140286 -2.11028e-21)
(0.00038673 0.0011736 -1.22056e-21)
(-4.88801e-05 0.000575442 8.17414e-22)
(0.000762257 0.000868035 1.80934e-21)
(0.000681583 0.00186547 -6.9303e-22)
(0.000661512 0.00170642 -3.37809e-22)
(0.000665563 0.00183118 1.01178e-21)
(0.000728279 0.00197263 -4.5992e-21)
(0.000582737 0.000224748 3.94904e-24)
(0.000735988 0.00198172 0)
(0.000449784 0.000578891 0)
(0.000642139 0.0017717 0)
(0.000955752 0.00157711 6.16294e-21)
(0.000493295 0.00125818 4.26314e-24)
(0.000610633 0.00178821 3.00864e-22)
(0.000594674 0.00173202 -6.5926e-23)
(0.000619528 0.00183974 -2.05926e-22)
(8.07384e-05 -0.000814827 7.28734e-22)
(0.000497187 0.00048314 -2.38682e-21)
(0.000683981 0.00186255 -1.50489e-21)
(7.86831e-05 -9.04936e-06 -5.01876e-22)
(0.00065025 0.00179992 -1.55015e-21)
(3.57248e-05 -1.85489e-06 0)
(0.000424203 0.000849068 2.6862e-22)
(0.00062823 0.000315588 -4.16834e-21)
(0.00100841 0.00062275 1.50178e-21)
(0.000578474 0.00146692 -1.23405e-21)
(0.000555331 0.0017126 3.23941e-23)
(0.000532448 0.0008039 -2.60617e-21)
(0.00033628 0.000504336 -6.68578e-24)
(0.000792538 0.000715088 2.8538e-21)
(3.54486e-05 4.91643e-05 3.35176e-22)
(0.000620125 0.00177165 0)
(0.000394667 0.00045661 -5.07879e-24)
(0.000647532 0.00187451 -4.42673e-22)
(0.000929454 -6.59647e-06 9.70852e-22)
(0.000642544 0.00175909 3.11733e-22)
(0.000806388 -0.000334813 -3.00006e-21)
(0.000671355 0.00186635 4.61815e-22)
(1.60063e-05 0.000122756 -3.30009e-22)
(0.000663312 0.00198464 -2.81584e-22)
(0.000385691 0.00119521 5.63487e-23)
(2.59391e-05 8.53731e-05 0)
(0.000293022 0.000576538 -8.97189e-22)
(0.000722404 0.00190778 7.39191e-23)
(0.000622115 0.00183888 -6.70153e-22)
(0.00041618 0.000648418 5.11271e-21)
(0.00057321 0.000271172 -2.99384e-21)
(0.00037629 0.000629677 -2.10375e-24)
(0.000329706 0.000618828 -3.64349e-21)
(2.93496e-05 5.21762e-05 6.23576e-22)
(0.000775458 0.000672358 3.30258e-21)
(0.000102784 -9.52295e-05 6.10866e-22)
(0.000651015 0.00172175 1.79399e-22)
(5.39232e-05 0.000977965 -5.99916e-22)
(0.00071964 0.00202182 0)
(0.000671305 0.00177116 -1.50437e-21)
(0.000389438 0.000509225 -3.18077e-21)
(0.000547209 0.000124191 1.30733e-21)
(0.000665403 0.00184216 -2.82075e-21)
(0.000671287 0.00184557 -3.95565e-22)
(6.72542e-05 0.000106771 1.54568e-22)
(0.000338016 0.000537678 -3.22326e-21)
(0.000730126 0.00207497 -4.02196e-22)
(0.000646789 0.00192025 -8.87391e-22)
(0.000621897 0.0011549 -3.58174e-21)
(0.000796376 0.000188315 2.50443e-21)
(7.65474e-05 -7.30243e-05 -1.92332e-23)
(0.000648287 0.00187839 0)
(0.00107421 0.000441713 0)
(0.000316824 2.20328e-05 2.57717e-21)
(0.000328768 0.000455989 6.04769e-21)
(0.000893002 0.000294515 5.20024e-25)
(0.000294546 0.000425838 1.46584e-21)
(0.000631596 0.00183928 -9.23565e-22)
(1.81657e-05 0.000150076 -1.27172e-21)
(0.000559386 0.000209764 -1.57082e-21)
(0.00108798 -1.2906e-05 0)
(0.000596932 0.000420909 0)
(0.000610043 0.00180589 8.87788e-22)
(0.000102918 0.000437946 2.71202e-24)
(-2.87974e-05 0.000651857 -6.94853e-22)
(0.000642413 0.00182943 1.94985e-21)
(3.59882e-05 2.59452e-05 1.9942e-21)
(0.000732258 0.000646387 -1.07247e-21)
(0.000594491 0.000668843 -2.89237e-22)
(0.000636384 0.00178138 6.52363e-22)
(0.000470555 -2.75472e-05 2.56913e-25)
(0.00113567 0.000114081 -2.32177e-21)
(0.000654953 0.00186906 -9.55581e-22)
(0.000652927 0.00185541 -8.84063e-22)
(0.0003576 0.000421948 0)
(0.000446149 0.00126608 1.27496e-22)
(4.2652e-05 1.9186e-05 -1.46462e-22)
(0.000297222 0.000494527 1.41037e-21)
(0.000610208 0.00193883 2.34989e-22)
(0.000715938 0.00194539 -2.37061e-21)
(0.000637223 0.000596409 0)
(0.000622334 0.00185154 0)
(1.44034e-05 0.000130393 0)
(0.00091652 0.000435848 2.64811e-21)
(0.000670817 5.10721e-05 8.38179e-22)
(0.000667696 0.000483202 3.31714e-21)
(-6.77269e-06 0.000494018 0)
(0.000638466 0.000611313 4.25794e-22)
(0.000765679 0.000195467 2.18038e-21)
(0.000626526 0.000313082 7.29459e-21)
(8.67346e-05 7.85374e-05 0)
(0.000980345 -5.18576e-05 -9.33412e-23)
(0.000655079 0.00175913 2.74099e-22)
(0.000297769 0.000549623 1.56166e-21)
(0.000628134 0.0018133 -2.33753e-22)
(0.000673797 0.0017958 -3.0184e-24)
(0.000639676 0.00176829 3.27478e-23)
(0.000328428 0.000319254 3.98929e-22)
(0.000785814 1.83237e-05 0)
(2.09468e-05 3.14664e-05 1.70171e-26)
(0.000945221 -6.42631e-05 1.73907e-21)
(1.59381e-05 9.96713e-06 -4.18431e-22)
(0.000471337 -0.000224196 -1.3879e-21)
(0.00122541 0.000110373 0)
(0.00105997 0.000229843 2.01295e-21)
(0.000572027 0.0016743 -2.97817e-24)
(4.48715e-05 2.79643e-05 0)
(0.000724483 0.0019932 4.12723e-22)
(0.000711162 0.000123828 6.9845e-22)
(0.000966394 2.48677e-05 -3.06695e-22)
(2.16667e-05 0.000186354 0)
(0.0010897 0.000480683 -4.53237e-21)
(0.00066315 0.0017068 -4.34655e-22)
(0.000736839 0.00201174 -3.26676e-21)
(0.00061769 0.00183687 -3.78274e-24)
(0.000657783 0.00171584 0)
(-8.19142e-07 0.000104073 -9.733e-23)
(0.000679962 0.000729243 -7.35445e-22)
(0.000955564 5.0735e-05 -2.99819e-21)
(0.000819333 0.000208384 -3.40462e-21)
(0.0003822 6.81381e-05 7.79782e-21)
(5.12004e-05 2.34991e-05 -9.60994e-22)
(0.00064329 0.001712 -1.05797e-20)
(0.000272267 0.000718396 7.02935e-25)
(0.000663172 0.0018659 -3.17967e-23)
(0.000605924 0.00196201 -6.39269e-23)
(0.000649945 0.00174938 0)
(0.000969408 4.64816e-05 0)
(6.61748e-05 -6.35993e-05 0)
(0.000696729 0.00189347 -2.38022e-22)
(0.000632422 0.00179722 -2.01248e-21)
(0.000610717 0.000384617 -4.47528e-21)
(0.000721911 0.00190112 0)
(0.00153057 0.000583728 4.19091e-22)
(1.93165e-05 3.58429e-05 -5.04132e-22)
(0.00133863 0.000670008 -1.05507e-22)
(0.000720418 0.00200445 1.40733e-21)
(7.64265e-05 -1.58181e-05 2.38723e-21)
(0.000619742 0.00176634 -1.48586e-21)
(0.000639239 0.00178986 -1.13953e-21)
(0.0010035 3.6777e-05 -9.16481e-23)
(0.000660057 0.00171677 4.12402e-22)
(0.000404614 5.08666e-05 -2.60118e-21)
(0.000640519 0.00177131 0)
(0.00061172 0.0018015 -3.62446e-22)
(3.65285e-05 1.69059e-05 0)
(0.000433628 1.40223e-05 -5.47278e-25)
(0.000710032 0.00200292 1.14996e-23)
(0.000635163 -0.000364433 1.09748e-21)
(0.000433242 0.0012274 8.27842e-24)
(0.00112106 7.23573e-05 1.48116e-22)
(0.000156182 -4.89598e-05 2.56606e-21)
(0.000339867 -8.93813e-06 -1.54225e-21)
(0.00100018 1.36208e-05 1.73381e-21)
(0.000626812 0.000574675 5.31465e-22)
(0.000712805 0.000166052 2.64683e-21)
(0.000648797 0.00177434 -1.0195e-21)
(0.000137672 0.000171314 -1.39141e-21)
(0.00075474 -0.000206742 6.51199e-22)
(2.6284e-05 4.02392e-05 2.05143e-21)
(0.000734521 0.0020158 -2.69918e-21)
(0.000310194 0.0003577 0)
(0.000754909 0.000949711 3.00352e-21)
(0.000714037 0.00200814 0)
(0.000672738 0.00187495 0)
(0.000914128 3.38286e-05 0)
(0.000662316 0.00039123 -2.6476e-24)
(0.000316728 -5.40177e-05 4.6228e-26)
(0.000310105 -0.000202611 -1.86808e-21)
(0.000557843 0.000293548 -6.3516e-21)
(0.000306317 -1.59519e-05 1.46474e-21)
(1.95072e-05 0.000166942 1.27828e-21)
(0.000716932 0.0020087 0)
(0.000316969 -0.000242146 6.48633e-21)
(0.000150276 -0.000152227 1.30606e-21)
(0.000674411 0.00186424 -2.10736e-22)
(0.000384405 0.00095467 0)
(6.20804e-05 8.91581e-05 -1.90349e-21)
(0.000312482 -0.000104755 2.35386e-21)
(0.000351253 8.65841e-05 -4.48565e-21)
(0.000955612 3.91314e-05 4.05226e-21)
(0.000939426 0.000352284 3.61696e-21)
(0.000639805 0.00187703 -7.23022e-22)
(0.000952335 -0.000102826 0)
(0.000554873 -0.000179344 1.58265e-21)
(0.000580283 -0.000112373 4.14241e-21)
(0.000567954 -6.13166e-05 -5.23927e-21)
(0.000534763 5.58201e-05 2.32809e-21)
(0.000574465 4.8317e-07 -1.27751e-21)
(-1.84696e-05 -0.000429707 9.02324e-22)
(4.02051e-05 2.60534e-05 2.84993e-22)
(0.000781775 0.000859486 -4.91949e-21)
(0.000903296 -5.84805e-05 0)
(0.000630815 0.00176794 -1.98711e-22)
(0.000426027 0.000121807 -1.00372e-21)
(0.000242448 0.00128721 -1.93598e-21)
(0.000680944 0.00185032 -1.09615e-21)
(0.000145189 -6.10455e-05 2.17401e-23)
(0.000741058 0.00202804 -9.84235e-22)
(0.000702364 -8.1292e-07 7.37206e-22)
(0.000351375 0.000285705 3.79256e-22)
(0.000564203 0.000101762 0)
(0.00063796 0.00179279 0)
(0.00070947 0.000378553 4.03244e-21)
(0.000667618 0.00184897 -7.28928e-22)
(0.000221508 -9.4809e-05 -2.23519e-21)
(0.00061608 0.00176862 7.70423e-22)
(0.000947945 3.3283e-06 2.33898e-24)
(5.24971e-06 0.00045582 0)
(0.000642633 0.00178517 2.06846e-22)
(0.000648425 -0.000105467 2.63698e-21)
(0.000286991 0.000387693 -2.99988e-21)
(1.3542e-05 1.44459e-06 1.2136e-21)
(0.000960303 2.8969e-05 -4.66442e-21)
(0.000260863 -8.53283e-05 5.59082e-21)
(0.000982715 -3.19084e-05 -2.43689e-21)
(0.00082648 -0.000159632 1.51803e-21)
(0.000719781 0.00201022 -1.72465e-21)
(0.000976942 2.53368e-05 3.16659e-22)
(0.000108582 -0.000119966 -1.8108e-21)
(0.000640174 0.00178361 6.64086e-24)
(0.000540629 0.00130538 -7.59075e-22)
(0.000958171 3.15961e-06 -1.18497e-21)
(0.000917628 1.15538e-05 4.10975e-21)
(0.00112193 0.000166856 0)
(0.000646459 0.00176558 -5.93322e-22)
(0.000356397 5.20024e-06 1.5255e-21)
(1.96355e-05 2.79402e-05 2.07741e-21)
(0.000526114 0.000909393 -3.76507e-22)
(0.000570451 0.00183742 -1.73403e-21)
(9.97841e-06 1.2553e-06 -1.20934e-21)
(2.87003e-05 0.00027737 -8.53838e-23)
(0.000729378 0.00190517 0)
(0.000675141 0.00177394 9.09276e-23)
(0.000685068 0.000210008 -1.23105e-21)
(0.000989659 -2.63793e-05 -5.64513e-21)
(3.00149e-05 0.000305767 0)
(0.000638595 0.0017767 5.48878e-23)
(0.000641308 0.00178102 -8.99764e-22)
(0.000715972 0.00201248 1.85039e-23)
(0.000707648 0.00198382 0)
(0.000611587 0.000563798 -2.02459e-21)
(0.000170832 -0.000194786 0)
(0.000630573 -4.16579e-05 1.38941e-21)
(0.000742988 0.00200746 4.2767e-21)
(0.000657717 0.00177822 5.14702e-21)
(0.000620234 0.00181098 0)
(0.000648521 0.00179786 -1.80535e-24)
(0.00095681 1.944e-05 0)
(0.000279734 4.94986e-05 1.60338e-21)
(0.000357505 5.06147e-05 -2.76905e-21)
(0.000427428 -0.000153853 0)
(0.000657462 0.00177683 2.36505e-22)
(-1.47451e-06 -0.000269734 2.28096e-21)
(0.000720669 0.00200438 1.77175e-21)
(0.000739347 0.00202246 -1.09891e-21)
(0.000517544 0.00170047 -5.09114e-22)
(0.00102423 5.26616e-05 0)
(0.000921277 1.5647e-05 1.5103e-22)
(0.000216943 -7.10442e-05 -3.90715e-22)
(0.000705782 0.00197211 1.32591e-21)
(1.94331e-05 1.78638e-07 0)
(0.000726872 0.00199987 0)
(0.000638413 0.001867 1.01801e-21)
(0.000844062 -8.71439e-05 0)
(0.00013519 -3.51448e-05 -7.80624e-23)
(0.000950351 2.35948e-06 -5.69245e-22)
(1.8111e-05 0.000262656 7.44637e-22)
(0.000128894 -0.000145006 9.25923e-22)
(0.000821131 7.31196e-05 1.38522e-21)
(0.00115111 0.00139112 -3.92893e-21)
(2.29405e-05 4.15529e-05 -2.17557e-21)
(0.00072289 0.0019554 3.13887e-21)
(0.000671568 0.00187911 -2.40826e-21)
(0.00100844 1.26e-05 0)
(0.000852561 4.07841e-05 -1.16615e-23)
(0.000647322 0.00186569 1.66022e-21)
(0.000125885 -5.09219e-05 -1.25267e-21)
(0.000651532 0.00178956 -1.19331e-22)
(0.000743406 0.00196891 8.59492e-22)
(0.000713946 0.00196468 -2.73496e-21)
(2.99484e-05 5.65272e-05 -6.52985e-22)
(7.7132e-05 0.000256242 8.07376e-23)
(5.06881e-05 8.70636e-06 1.36395e-21)
(1.55131e-05 2.62399e-05 5.45863e-22)
(0.000599785 0.00178843 0)
(0.000166918 -5.98174e-05 -1.37891e-25)
(0.000740779 -1.08455e-05 0)
(2.10329e-05 4.32472e-05 2.69796e-22)
(0.000659574 0.00177247 9.0159e-22)
(9.81076e-05 -4.23126e-05 0)
(0.000288544 0.000692602 -1.71289e-21)
(0.000946272 -1.93979e-05 0)
(1.61283e-05 -1.84948e-05 6.2502e-22)
(0.000726664 -0.000190403 0)
(0.000962554 7.10372e-05 0)
(0.000731747 4.65694e-05 7.4905e-22)
(2.96375e-05 -0.000283898 0)