/*--------------------------------*- C++ -*----------------------------------*\
  =========                 |
  \\      /  F ield         | OpenFOAM: The Open Source CFD Toolbox
   \\    /   O peration     | Website:  https://openfoam.org
    \\  /    A nd           | Version:  7
     \\/     M anipulation  |
\*---------------------------------------------------------------------------*/
FoamFile
{
    version     2.0;
    format      ascii;
    class       volScalarField;
    location    "110";
    object      p;
}
// * * * * * * * * * * * * * * * * * * * * * * * * * * * * * * * * * * * * * //

dimensions      [0 2 -2 0 0 0 0];

internalField   nonuniform List<scalar> 
591
(
0.000123814
0.00012383
0.000123835
0.000123779
0.000123783
0.000123854
0.00012384
0.000123818
0.000116947
0.000123839
0.000124028
0.000122782
0.000123824
0.000119671
0.000123818
0.000123859
0.000123823
0.00012387
0.000121897
0.000123202
0.000123801
-3.52308e-06
0.000124021
0.000123802
0.000123975
0.000123825
0.000123944
0.000123935
0.000123839
0.000123849
0.000123996
0.000123969
0.00012399
0.000123989
0.000123991
0.000123313
0.000123986
0.000123803
0.000124015
0.000123927
0.000123877
0.000123982
0.000123834
0.00012386
0.000123979
0.000124001
0.000119178
0.000124005
0.000123837
0.000123946
0.00012396
0.000123987
2.39426e-05
3.05877e-05
4.7831e-05
0.000123833
0.00012401
0.000124005
0.000124003
0.000123811
0.000123898
0.000123831
0.000123827
0.000123879
0.000122508
0.000123829
0.000123834
0.000123999
0.000120678
0.000123847
0.000123837
0.000124006
0.000123986
0.000123984
0.00012399
0.000123965
0.000123806
0.000124003
0.000123808
0.000123749
0.000123579
0.000124008
0.000123966
0.000123956
0.000124015
0.00012382
0.000123902
0.000123997
0.000123959
0.000123712
0.000123971
0.000123929
0.000123938
0.000123811
0.000124013
0.000123968
0.000123512
0.000123411
0.000123588
0.00012402
0.000123928
0.000123862
0.000124026
0.000123775
0.000124028
0.000123832
0.000123827
0.000123968
0.000124022
0.000124025
0.000123919
0.000124001
0.000123845
0.000124001
0.000124018
0.000124008
0.000123963
0.00012395
0.000123525
0.00012393
0.000123831
0.000123822
0.000123906
0.000123808
0.000123981
0.000120137
0.000124028
0.000124008
0.000123577
0.000123991
0.00012382
0.000123504
0.00012397
0.000123957
0.000123995
0.000123837
0.000122572
0.000124024
0.000123822
0.000123514
0.000123591
0.00012392
0.000124011
0.000124017
0.000124009
7.61698e-06
3.67949e-06
2.07272e-06
3.8157e-05
3.66967e-05
5.66189e-06
3.83098e-05
1.57395e-05
3.72935e-05
1.78061e-05
0.000123832
0.000123822
0.000124017
0.000124005
0.000124013
0.000124013
0.000124004
0.000123999
0.000124018
0.000124014
0.000123983
0.000124013
0.000124009
0.000124017
0.000123965
0.000123338
0.000124016
0.000122075
0.000124005
0.000123994
0.000123949
0.000123839
0.000123994
0.000124012
0.000124015
0.000123434
0.000122421
0.000122995
0.000123382
0.000123998
0.000124007
0.000123894
0.0001238
0.000124003
0.000122915
0.000123241
0.000123799
0.000123992
0.00012369
0.000123986
0.000124013
0.000123989
0.000123657
0.000123791
0.00012401
0.000124012
0.000124015
0.000123818
0.000123993
0.000123814
0.00012402
0.000123824
0.000123824
0.000124016
0.000123614
0.00012379
0.000123835
0.000123476
0.000123971
0.000123621
0.00012391
0.000123932
0.000124003
0.000123387
0.000123896
0.000123784
0.000123783
0.000123965
0.000123732
0.000123879
0.000123798
0.000123714
0.000123775
0.00012402
0.000123779
0.00012402
0.000123877
0.000124
0.00012384
0.000123842
0.000124023
0.000123724
0.000124007
0.000123713
0.000123763
0.000123829
0.000123807
0.000123845
0.000123832
0.000123602
0.000123804
0.00012376
0.000123967
0.000123823
0.000123686
0.000123959
0.000123232
0.000123803
0.000123121
0.00012301
0.000123814
0.000123778
0.000123817
0.000123813
0.000123791
0.000124023
0.00012386
0.000123927
0.000123876
0.000123864
0.000123876
0.000123978
0.000123627
0.000124018
0.000123662
0.000123548
0.000123849
0.000123997
0.000123574
0.00012401
0.000123926
0.000123926
0.000123957
0.000123841
0.000123818
0.000123659
0.000123771
0.000123817
0.000123855
0.00012392
0.000123979
0.000123998
0.000124003
0.000123757
0.000123867
0.00012399
0.000123998
0.000123991
0.000123782
0.000124006
0.000123883
0.000123997
0.000123742
0.000124006
0.000123728
0.000123981
0.000123873
0.000123817
1.16407e-05
2.19107e-05
0.00012375
0.000123837
0.000124022
0.000123762
0.000124022
0.000123846
0.000124005
0.000123981
0.00012371
0.000123975
0.000123804
0.00012402
0.00012384
-2.09568e-07
0.000123722
0.000123986
0.000123982
0.000123667
0.000123837
0.000123882
0.000123975
0.000123722
0.000123998
0.000123879
0.000123832
0.000123973
0.000123774
0.000123696
0.000123737
0.000123843
4.749e-05
0.000123993
0.00012397
0.000123829
0.000124
0.000123906
0.000123851
0.000123836
0.000123818
0.000123984
0.000123847
0.000123748
0.000123887
0.000123754
0.000123998
0.000123761
0.000123826
0.000123857
0.000123939
1.98709e-05
2.73074e-05
3.42931e-05
9.63834e-06
0.000123802
3.30541e-05
2.60136e-05
0.000123996
1.90716e-05
1.70277e-05
3.81814e-05
7.57576e-06
3.99318e-05
5.60484e-06
4.08248e-05
3.68914e-06
4.28062e-05
1.87697e-06
3.64059e-05
2.31923e-05
2.94415e-05
1.49904e-05
0.000123687
0.000124008
0.000123869
0.000123886
0.000120835
0.000123921
0.000124002
0.000123972
0.000123766
0.000124008
0.000124017
0.000123987
0.000123983
0.000123746
0.000123819
0.000124002
0.000124008
0.000123842
0.0001237
0.000123797
0.000123354
0.000123804
0.000124026
0.00012399
0.00012383
0.000124015
0.000123669
0.00012384
0.000123629
0.00012279
0.000123985
0.000123998
0.000124025
0.000123686
0.000123888
0.000123627
0.000123845
0.000123838
2.6049e-05
2.18755e-05
3.30332e-05
1.16168e-05
0.000124027
0.000123678
1.98177e-05
2.82558e-05
3.55994e-05
9.58714e-06
0.000123854
0.000123923
0.000123795
0.000123802
0.00012382
0.00012397
0.000123759
0.00012398
0.000123936
0.000123047
0.000123804
0.00012377
5.93815e-05
0.000123174
0.000124013
0.000123814
0.0001237
0.000124001
0.000124004
0.000123793
0.000123592
0.000123829
0.000123865
0.000123677
0.000123957
0.000122841
0.000123747
0.000123777
0.000123979
0.000100846
0.000123824
0.000123434
0.000123737
0.000124013
0.00012364
1.08947e-05
2.11114e-05
3.53654e-05
2.82055e-05
1.36602e-05
5.57778e-08
4.20823e-05
2.69063e-06
4.01546e-05
4.76217e-06
3.94123e-05
6.81442e-06
3.86204e-05
8.85657e-06
3.72873e-05
1.36719e-05
3.17254e-05
3.05893e-05
2.39378e-05
2.52598e-05
1.77632e-05
1.29366e-05
1.57056e-05
0.000124007
0.000102352
0.000123801
0.000123725
0.00012401
0.000123901
0.000124017
0.000123731
0.00012386
0.000123976
0.000123971
0.000123981
0.000123729
0.000123825
0.000123748
0.000123932
0.000123758
0.000124011
0.000123894
0.000123722
0.000123731
0.000123835
0.00012383
0.000124018
0.000124009
0.000124024
0.000123976
0.000124024
0.000123645
0.000123825
0.000124013
0.000123771
0.000123904
0.000123834
0.000123889
0.000123712
0.000123975
0.000123974
0.000123288
0.000121319
0.000123016
0.00012356
0.000123824
0.000123654
0.000123837
0.000124019
0.000123992
0.000123831
0.000123445
0.000123422
0.000124012
0.000123978
0.000123852
0.000123941
0.000123487
5.82971e-05
4.01103e-05
0.000123945
0.000123965
0.000123328
0.000122692
0.000123811
0.000123576
0.000123321
0.00012382
0.00012375
0.000124011
0.000123854
0.000123888
0.000118949
5.44512e-05
0.000123858
8.12461e-05
1.86226e-06
-3.80654e-07
0.00012382
0.000123788
0.000123977
0.000124022
0.000124017
0.000124011
0.00012402
0.000123807
-2.30637e-06
0.000122766
0.00012385
0.000123953
0.000121953
0.00012401
0.000124011
0.000122238
0.000123928
0.000123978
0.000121636
0.000124022
7.63083e-05
0.000124009
0.000123754
0.00012397
0.000122319
0.000123532
0.000123614
0.000123858
0.000124024
0.000123962
0.00012401
0.000124024
0.000123812
0.000116118
)
;

boundaryField
{
    back
    {
        type            empty;
    }
    ingreso
    {
        type            zeroGradient;
    }
    salida
    {
        type            fixedValue;
        value           uniform 0;
    }
    front
    {
        type            empty;
    }
    defaultFaces
    {
        type            zeroGradient;
    }
}


// ************************************************************************* //
