/*--------------------------------*- C++ -*----------------------------------*\
  =========                 |
  \\      /  F ield         | OpenFOAM: The Open Source CFD Toolbox
   \\    /   O peration     | Website:  https://openfoam.org
    \\  /    A nd           | Version:  7
     \\/     M anipulation  |
\*---------------------------------------------------------------------------*/
FoamFile
{
    version     2.0;
    format      ascii;
    class       volVectorField;
    location    "8.5";
    object      U;
}
// * * * * * * * * * * * * * * * * * * * * * * * * * * * * * * * * * * * * * //

dimensions      [0 1 -1 0 0 0 0];

internalField   nonuniform List<vector> 
591
(
(0.000813269 -4.96812e-05 1.21914e-18)
(0.000742872 -4.61417e-05 -6.70571e-19)
(0.000833081 -5.69407e-05 5.75201e-20)
(0.000819994 1.53077e-05 -1.49706e-19)
(0.000813862 2.28251e-05 2.26406e-19)
(0.000651005 -1.30016e-05 -1.40384e-19)
(0.000503626 -0.000378693 8.04415e-19)
(0.000806757 -1.2649e-05 2.10901e-18)
(0.00572483 0.00248605 9.99452e-19)
(0.000779175 -2.73193e-05 2.42093e-18)
(7.1749e-05 0.000180364 1.22918e-18)
(0.000886208 0.00123426 9.53214e-21)
(0.000769994 1.52842e-05 1.30605e-18)
(0.00150883 0.00235804 -7.95921e-19)
(0.000798797 7.16075e-05 -4.44997e-19)
(0.000179903 -0.000256493 3.51117e-22)
(0.000127406 0.000653012 7.13787e-19)
(0.000860236 2.73337e-05 -4.98932e-19)
(0.00200331 0.000427735 4.74317e-19)
(0.0013168 0.000321092 -2.51497e-19)
(0.000801432 3.91391e-05 3.70478e-19)
(0.00385235 0.00753675 2.36437e-20)
(4.38468e-05 8.02548e-05 2.74153e-19)
(0.0008074 5.78211e-06 -4.49663e-19)
(2.11471e-05 -2.71565e-05 3.63584e-19)
(0.000802019 2.03869e-05 0)
(8.94714e-05 0.000474998 1.61976e-19)
(0.000504149 3.49846e-05 -1.81222e-19)
(0.000717584 7.44512e-05 1.14734e-18)
(0.000818416 -6.23502e-05 5.9665e-19)
(7.12387e-05 1.41221e-06 2.38043e-24)
(5.28387e-05 -5.73677e-05 3.5684e-19)
(4.9885e-05 -5.27899e-06 -4.70037e-20)
(5.98468e-05 -6.96089e-06 0)
(6.49314e-05 -1.71661e-05 1.144e-18)
(0.00115065 0.000152787 1.82711e-19)
(4.39996e-05 -8.55681e-06 4.53073e-20)
(0.000804133 6.44889e-06 4.04321e-23)
(4.1323e-05 5.63234e-05 2.6917e-19)
(8.63922e-05 -0.0001606 -8.65316e-19)
(0.000505203 -0.0001465 9.68703e-19)
(3.70348e-05 -1.12037e-05 4.60849e-20)
(0.000793228 -1.09391e-05 -1.56183e-18)
(0.000817238 -1.33628e-05 -6.7985e-19)
(2.75446e-05 -1.33751e-05 0)
(6.67702e-05 1.30604e-05 8.63121e-20)
(0.00129971 0.00455815 9.04416e-19)
(8.94947e-05 2.6433e-05 8.75018e-20)
(0.000786079 7.86071e-05 0)
(0.000354583 -0.000108608 6.87128e-19)
(0.000364248 0.000281703 5.18593e-21)
(0.000381054 8.91483e-05 -1.01707e-18)
(0.00619298 0.00993289 -8.64255e-19)
(0.00638293 0.0102728 1.06725e-20)
(0.00566872 0.0104758 1.49452e-18)
(0.000800313 -7.10278e-05 0)
(7.77826e-05 4.1259e-05 0)
(0.00034307 3.13458e-05 8.19313e-24)
(7.59613e-05 1.78735e-05 -3.50969e-19)
(0.000905394 -1.92728e-05 0)
(0.000591752 2.68855e-05 3.21123e-19)
(0.000762597 3.6068e-05 2.19258e-18)
(0.000739021 -8.2999e-06 -5.44081e-19)
(0.00066548 1.42534e-05 -3.16774e-19)
(0.00170291 0.000534942 5.51638e-19)
(0.000802216 -9.56472e-06 -1.13844e-18)
(0.000769139 2.74256e-05 -5.18055e-19)
(9.9216e-05 7.43904e-06 -1.75629e-19)
(0.000785588 0.0023309 0)
(0.000803756 1.19475e-05 0)
(0.000701537 1.50532e-05 -1.38439e-18)
(4.68787e-05 2.16794e-05 0)
(0.000276771 0.000277342 3.31105e-19)
(5.60656e-05 -2.3418e-05 0)
(5.40801e-05 -8.1918e-06 1.61576e-19)
(4.13711e-05 -6.27008e-05 -3.41055e-20)
(0.000746563 3.56183e-05 2.45448e-19)
(5.39326e-05 1.57037e-05 0)
(0.000768633 8.0747e-05 4.4546e-19)
(0.000733608 0.000302244 2.1354e-19)
(0.000951748 6.2274e-05 -4.03463e-20)
(5.20976e-05 3.04574e-05 -4.57826e-20)
(6.34215e-06 -5.31595e-05 0)
(0.000412411 0.000227055 1.72409e-19)
(5.98166e-07 4.12525e-05 0)
(0.00071577 -4.44904e-05 -6.06177e-19)
(0.00053374 -9.39918e-05 0)
(7.92387e-05 4.41604e-06 -1.76748e-19)
(4.25163e-06 -6.98665e-05 0)
(0.000794897 0.00023527 -3.45835e-19)
(4.43786e-06 -3.33654e-05 0)
(0.000408015 0.000322347 -1.21966e-23)
(0.000497136 0.000118306 0)
(0.000788021 3.10353e-05 1.17148e-23)
(2.55011e-06 2.84537e-05 -4.27273e-20)
(0.000421442 2.29023e-05 1.78698e-18)
(0.00100311 7.9227e-05 4.21894e-20)
(0.00104758 1.90014e-05 6.49826e-22)
(0.000725111 0.00064023 2.70884e-19)
(8.9993e-07 7.62238e-05 0)
(7.97677e-06 -0.000141474 -3.16353e-19)
(1.6752e-05 -0.000238209 -1.11498e-18)
(-2.49969e-06 0.000116739 -6.03348e-19)
(0.000777597 -2.80877e-06 0)
(-1.10522e-06 0.000146705 0)
(0.000772265 -2.09101e-05 2.18162e-18)
(0.000713973 5.87819e-05 1.51254e-18)
(0.000390635 -2.53577e-05 0)
(6.22525e-05 0.000237391 -9.04547e-19)
(-5.21217e-07 0.0002294 5.01882e-19)
(0.000102578 0.000509596 6.33165e-19)
(0.000278444 0.000141341 -9.4451e-19)
(0.000834107 -1.3501e-05 1.36455e-19)
(0.000271636 8.26521e-06 5.37942e-19)
(2.90246e-07 5.46365e-05 0)
(6.65414e-05 0.000331741 -1.10211e-18)
(0.000308634 0.000329535 -1.63809e-19)
(8.56462e-06 -0.000103224 1.48496e-19)
(0.00062353 0.000752019 0)
(0.000350038 0.000387876 5.81894e-20)
(0.000814788 -9.22314e-07 1.04506e-18)
(0.000658945 -7.51976e-05 -2.72552e-18)
(5.86395e-06 -0.000189161 0)
(0.000796062 -1.00427e-05 -1.12719e-19)
(0.000313077 -3.62762e-05 1.25987e-18)
(0.00274732 0.000831011 -3.39387e-19)
(-1.00374e-05 0.000179096 -6.20297e-19)
(-2.85059e-05 0.000225398 1.63844e-18)
(0.000912831 1.87088e-05 -3.93905e-20)
(7.69789e-05 -2.04852e-06 -7.59164e-19)
(0.000769493 4.9325e-05 -3.93699e-19)
(0.000969514 2.64297e-05 -4.15511e-20)
(8.52906e-05 0.000411807 -6.04017e-19)
(0.000459549 8.60768e-05 -5.00436e-19)
(6.21749e-05 -1.31392e-06 1.58192e-19)
(0.000842395 -3.25547e-05 -1.07177e-18)
(0.00166074 0.000237761 -1.14126e-18)
(-3.21309e-06 8.9143e-05 5.02313e-19)
(0.000774074 -4.74524e-07 -5.08219e-19)
(0.000867197 0.000530657 -7.95473e-20)
(0.000142543 0.000907392 0)
(0.000539905 7.00748e-05 0)
(0.000259365 6.50813e-05 -1.62408e-18)
(7.10071e-05 6.90136e-05 -1.3922e-18)
(3.7934e-05 2.65512e-05 0)
(0.00430458 0.00810022 -1.22149e-20)
(0.00430992 0.00806265 5.22806e-20)
(0.00450557 0.00821947 -3.2667e-20)
(0.00389903 0.00746089 0)
(0.00398538 0.00745018 5.68337e-19)
(0.00431893 0.00809548 -1.22933e-19)
(0.00381625 0.00770074 5.06091e-19)
(0.00423477 0.00809044 0)
(0.00392443 0.00838657 6.40627e-19)
(0.00422597 0.0080983 2.61315e-19)
(0.000805826 -1.81209e-05 -1.35768e-18)
(0.000718828 7.53744e-05 0)
(0.00021969 8.09236e-05 1.29393e-19)
(6.04226e-05 2.27327e-05 8.83353e-20)
(8.78991e-05 5.5708e-05 6.88983e-19)
(0.00011758 5.35574e-05 -3.46169e-19)
(0.000113001 1.86566e-05 0)
(5.92228e-05 9.18897e-06 8.28954e-20)
(0.000203542 0.000150523 0)
(0.000176346 6.62565e-05 -5.3125e-20)
(0.000329599 0.000232772 -5.15895e-21)
(6.38767e-05 5.2983e-05 -4.43428e-19)
(0.000102223 3.90891e-05 -8.63718e-20)
(9.95846e-05 7.37156e-05 1.3292e-21)
(0.000244538 0.000370785 -6.7485e-19)
(0.000167143 0.00112265 0)
(4.99605e-05 6.07283e-05 3.47585e-19)
(0.000208593 0.00185697 0)
(0.00020477 0.00026198 7.13855e-19)
(4.69398e-05 -7.90673e-06 1.12772e-19)
(0.000455854 0.000172315 -1.74553e-19)
(0.000782312 2.84226e-05 -1.87575e-18)
(5.35451e-05 1.20429e-06 4.5997e-24)
(0.000158939 4.5256e-05 2.27375e-19)
(0.000236595 0.000116647 -9.11189e-20)
(0.000854405 0.000682221 3.39331e-19)
(0.000690743 0.00164735 -9.35562e-21)
(0.000430437 0.00133515 -9.56312e-21)
(0.000996018 0.00055442 0)
(0.00011743 -9.67278e-06 1.13292e-18)
(0.000131698 3.18859e-05 -4.49066e-20)
(0.000405235 -0.000200975 -1.15268e-18)
(0.000794026 4.33538e-05 0)
(0.000183071 4.74797e-05 3.66965e-19)
(0.000220918 0.00141421 0)
(0.001015 0.000721259 -7.39767e-20)
(0.000801762 4.81062e-05 -1.84817e-19)
(9.79901e-05 -1.77244e-05 -3.03856e-19)
(0.000792926 0.000292844 -2.10803e-20)
(8.84131e-05 -2.43825e-05 -6.05596e-19)
(0.000225841 0.000186623 8.7518e-20)
(0.000223584 0.000312866 -3.49514e-19)
(0.00085335 0.000231305 0)
(0.000768569 2.36073e-05 0)
(0.000259043 0.000155793 1.79166e-19)
(0.000235796 2.71126e-05 2.9509e-24)
(0.000184797 0.000216187 0)
(0.000280372 0.000630936 -5.62144e-21)
(0.00032331 2.31528e-05 0)
(0.000313389 0.000577798 0)
(0.000118154 9.67523e-05 -1.36442e-21)
(0.000788 -2.6584e-05 -9.5185e-19)
(0.000851324 -2.5769e-05 7.81448e-19)
(0.000137423 7.46922e-05 -1.51828e-19)
(0.000926672 0.000149974 8.62733e-20)
(0.000814438 4.96935e-05 3.31475e-19)
(0.000781326 2.86581e-05 -2.97449e-19)
(0.000970976 0.000402555 0)
(0.000417908 0.000128442 6.32674e-19)
(0.000863634 0.000313023 2.11908e-20)
(0.000540363 0.000170297 0)
(0.000277253 0.000433209 4.14969e-19)
(0.000253697 0.000230494 -8.55218e-20)
(0.00107909 0.000385036 -7.92455e-19)
(0.000579067 0.000122602 -1.81668e-19)
(0.000780704 0.0001206 -7.39926e-21)
(0.000805262 3.13647e-05 9.46369e-20)
(0.000119837 -9.72783e-05 -2.00711e-18)
(0.000712721 0.000370721 2.22141e-19)
(0.000620792 7.81336e-05 2.33488e-20)
(0.000675626 0.000270444 1.38194e-23)
(0.000696524 0.000436132 -4.14628e-19)
(0.000822817 3.11941e-05 9.07502e-20)
(7.90975e-05 9.34926e-05 0)
(0.00062404 0.000427795 -4.71942e-20)
(0.00018464 0.000116745 0)
(0.000361575 0.000514277 -2.67886e-19)
(0.000308194 0.000184515 0)
(0.000645672 0.000210805 3.5997e-19)
(0.000618008 0.000277137 -4.43067e-20)
(8.28917e-05 0.000110393 6.26703e-19)
(0.000892461 0.000111068 -1.59669e-18)
(6.82664e-05 3.00092e-05 2.60586e-19)
(0.000908961 8.12181e-05 -1.65148e-18)
(0.000746821 2.75857e-06 1.61505e-19)
(0.000777747 -9.46028e-06 1.9142e-18)
(0.000789023 3.87017e-07 -1.33182e-19)
(0.000672778 7.42027e-05 0)
(0.000878585 1.89367e-05 8.94617e-19)
(0.000911543 0.00024562 -4.32588e-19)
(0.000736519 7.85725e-05 -4.8464e-19)
(0.000748062 0.000233726 -8.93073e-20)
(0.000253149 -8.53698e-05 -2.10649e-18)
(0.000706784 9.56901e-05 8.99529e-19)
(0.000585419 0.000575638 0)
(0.00014089 -8.60625e-05 0)
(0.00115601 0.000452661 5.0159e-19)
(0.00084482 -0.000210434 -3.26956e-18)
(0.00123784 0.000412604 5.78705e-19)
(0.00125687 0.000726897 -6.44884e-20)
(0.000784018 5.67911e-05 -2.1361e-19)
(0.000790956 9.4078e-05 -1.41988e-18)
(0.000765121 8.82216e-05 1.57456e-18)
(0.000753762 -4.42087e-05 9.69624e-20)
(0.000651673 0.000341609 -4.46257e-20)
(0.000113165 0.00015303 4.05542e-23)
(0.000685578 -7.10927e-05 2.68685e-19)
(0.000268766 -0.000159785 -7.46193e-19)
(0.000591858 0.000196031 0)
(0.000659652 2.45733e-05 9.94468e-20)
(0.000642701 6.01689e-06 -3.82734e-19)
(0.00037215 0.000185929 3.97556e-20)
(0.000755651 0.000493932 -1.67678e-19)
(0.000158514 9.51379e-05 1.6613e-25)
(0.000786473 0.000380531 0)
(0.000941434 0.000320034 4.2126e-20)
(0.000705743 -0.000115711 -6.2389e-19)
(0.000332484 0.000111488 5.02902e-19)
(0.000870275 0.000410929 0)
(5.85295e-05 3.95535e-05 1.35475e-19)
(0.000459359 0.000273307 2.16746e-19)
(0.00043367 -7.53393e-05 -7.18649e-19)
(0.00019889 -0.000123455 -1.07293e-18)
(0.000748895 -3.2598e-05 -4.82203e-19)
(0.000786869 -0.000109852 -1.94882e-19)
(0.000541169 0.00074442 -1.17907e-18)
(0.000816215 6.95648e-05 -6.69889e-20)
(0.000789398 -0.000104353 1.27339e-18)
(0.000649325 0.000101018 2.30817e-20)
(0.000501427 0.000222769 -1.67849e-19)
(4.6597e-05 -2.72826e-05 -8.8738e-20)
(0.00021624 -2.00345e-05 2.42514e-18)
(3.80001e-05 8.27566e-07 -1.9735e-19)
(0.000758908 7.68497e-05 3.63166e-19)
(0.000621574 0.000146307 0)
(0.000210994 -3.94353e-05 -1.06072e-18)
(0.000134019 1.64646e-05 3.1634e-19)
(0.000147359 -3.25288e-05 -1.68091e-23)
(0.000774936 0.000116315 -3.16219e-19)
(0.000159639 -4.52481e-06 0)
(0.000558 0.000246367 0)
(0.000111557 0.000341505 -3.67581e-19)
(0.000809402 0.000151902 2.08936e-18)
(3.10703e-05 1.75208e-06 0)
(0.000796747 -2.3925e-05 0)
(5.82299e-05 -2.71604e-05 0)
(0.0008344 2.20434e-05 -4.43685e-21)
(0.000818292 -6.6539e-05 0)
(0.00426543 0.00810025 7.96176e-20)
(0.00416478 0.00805522 1.58663e-19)
(0.000832633 1.17962e-05 0)
(0.000735071 -6.75696e-05 8.2299e-19)
(0.000154602 0.000141491 1.51167e-19)
(0.000902048 6.34511e-05 7.9826e-19)
(0.00013625 0.000119075 2.3748e-20)
(0.000724703 -7.36682e-05 6.33148e-19)
(4.33537e-05 1.39821e-05 0)
(4.09873e-05 -1.9429e-05 -4.5441e-20)
(0.000852995 8.43177e-05 -4.83493e-19)
(5.23705e-05 -3.77777e-05 -6.78424e-19)
(0.00072893 0.000131771 -4.28945e-20)
(0.000167441 0.00017608 -1.90566e-19)
(0.000790709 1.49733e-05 0)
(0.0046448 0.00849532 1.87808e-21)
(0.000162493 0.000769591 3.38038e-19)
(0.00014057 -4.49036e-05 -9.23012e-19)
(8.03703e-05 -3.62566e-05 -1.18274e-18)
(0.000841231 2.13747e-05 1.91779e-20)
(0.000550699 0.000418557 0)
(0.000384562 0.000421952 -2.5905e-19)
(0.000125142 -4.49777e-05 1.19894e-18)
(0.000799392 5.81772e-06 7.8072e-20)
(5.2083e-05 1.96912e-06 4.12326e-19)
(0.000617879 -5.27873e-05 1.18728e-18)
(0.000773365 3.69254e-06 -6.03116e-19)
(0.000100049 -5.34467e-05 1.73134e-18)
(0.000823076 9.2445e-06 2.59568e-24)
(0.000816212 1.66659e-05 -3.81619e-20)
(0.000817178 8.86425e-05 0)
(0.000758997 4.66226e-05 0)
(0.0058469 0.00718181 2.67599e-19)
(3.95231e-05 5.83697e-06 -1.21113e-19)
(0.000203694 -6.5325e-05 7.80918e-19)
(0.000697794 0.000116889 -7.05685e-19)
(4.42665e-05 -1.18682e-06 2.04037e-19)
(0.000553632 -1.48729e-05 -7.33441e-19)
(0.000676262 -2.02287e-05 1.54416e-18)
(0.000671516 0.000155664 -3.60087e-19)
(0.000787967 -6.18245e-05 3.61585e-19)
(0.000108246 -2.64384e-05 1.13064e-18)
(0.00066486 1.74007e-05 -3.23833e-19)
(0.000836491 7.29036e-05 0)
(0.00051759 0.000305053 4.26573e-20)
(0.00087435 2.13134e-05 -9.31435e-19)
(3.8329e-05 -4.99603e-06 9.22562e-19)
(0.000775597 -3.92727e-06 9.52492e-19)
(0.000781204 -6.9577e-05 -9.63781e-19)
(0.000675493 3.07045e-05 -5.72652e-19)
(0.000472547 -3.47662e-05 -5.3265e-19)
(0.00419132 0.00807254 2.90664e-19)
(0.00424451 0.00798142 -3.77339e-19)
(0.00411782 0.00755651 3.32121e-19)
(0.0042918 0.00810179 3.16304e-19)
(0.00083162 6.47977e-06 1.4469e-19)
(0.00422952 0.00786409 0)
(0.0041009 0.00796832 -5.53559e-19)
(5.91296e-05 -6.2555e-07 -1.00927e-18)
(0.00418583 0.00814441 -5.84361e-20)
(0.00418193 0.00812604 -3.03318e-19)
(0.00628678 0.0105601 0)
(0.0060993 0.00986802 5.08162e-20)
(0.00615651 0.010577 0)
(0.00609918 0.0098712 1.83123e-19)
(0.0060642 0.0106534 2.79489e-19)
(0.00608262 0.00986267 2.35462e-20)
(0.00596888 0.0106807 -8.05924e-19)
(0.00610553 0.00981322 2.6686e-20)
(0.00374467 0.00916984 -1.94313e-19)
(0.00420199 0.00812092 5.01396e-21)
(0.00428212 0.00785399 1.03801e-19)
(0.00419723 0.0081381 5.69018e-20)
(0.000843373 0.00017411 4.52707e-20)
(2.2995e-05 2.66072e-06 0)
(0.000626504 -0.000149326 0)
(0.000791928 3.26257e-05 0)
(0.00240442 0.00105217 4.33931e-21)
(0.000634328 -1.06598e-05 1.73456e-19)
(5.02387e-05 9.37702e-06 4.59932e-20)
(2.64488e-05 -3.26906e-05 1.6739e-18)
(0.000833189 3.297e-05 0)
(3.50305e-05 1.7603e-05 -1.94258e-19)
(0.000147807 0.00023359 0)
(4.11391e-05 -1.1843e-06 0)
(3.42266e-05 -2.09703e-06 0)
(0.000794481 0.00013794 1.14991e-20)
(0.000849106 2.48402e-05 1.77953e-19)
(3.71782e-05 0.000351667 1.60244e-22)
(0.000162314 0.000278849 -1.86597e-18)
(0.000584654 0.000346109 -8.68252e-20)
(0.000866255 0.000117972 6.01645e-19)
(0.000734294 -0.000540628 6.70542e-19)
(0.000312607 0.00109279 0)
(0.000470759 0.000522466 2.73277e-18)
(0.000104265 0.000150133 -1.81505e-18)
(4.70327e-05 5.93371e-07 0)
(0.000865647 -4.4812e-06 3.61983e-20)
(2.25703e-05 4.72686e-05 1.66629e-18)
(0.000884641 2.74075e-05 2.73564e-19)
(0.000118531 -0.000343699 3.83214e-18)
(0.000911767 4.54492e-05 -2.72726e-19)
(0.00153375 9.39008e-05 7.5746e-19)
(4.93364e-05 -1.38361e-05 8.36573e-20)
(4.6268e-05 1.08719e-05 -8.69595e-19)
(4.45667e-05 0.000169799 0)
(0.000858132 0.000113807 5.93645e-19)
(0.000473549 0.000373823 2.40229e-19)
(0.000868811 1.65578e-05 -3.92328e-20)
(0.000719626 -1.792e-05 2.58855e-19)
(0.000652308 -0.000231438 0)
(0.0062468 0.00999878 -1.85849e-19)
(0.00616443 0.0098834 4.64531e-19)
(0.00643635 0.0104256 -6.04985e-19)
(0.00611095 0.00984969 -7.62335e-20)
(4.58339e-05 0.000118297 8.09321e-19)
(0.00087175 4.71241e-05 1.3412e-22)
(0.00615165 0.00986835 -4.4445e-19)
(0.00630763 0.0101088 5.91036e-19)
(0.0063971 0.0105291 -4.29922e-19)
(0.00610984 0.00985652 -6.28252e-20)
(0.000110632 0.000615483 -2.04627e-20)
(0.000200956 -0.000165213 -8.05405e-19)
(0.000866419 -1.22674e-06 -7.65363e-19)
(0.000697966 0.000215783 0)
(0.000678361 -1.98386e-05 0)
(0.000185437 0.000392338 3.40684e-19)
(0.000606768 0.000586454 -5.37879e-19)
(2.57753e-05 -3.31533e-06 1.80762e-19)
(0.000211485 0.000463178 -7.48029e-19)
(0.000989942 0.000953905 -1.14185e-19)
(0.000715198 0.00017435 0)
(0.000759473 0.000164506 1.32056e-19)
(0.0063342 0.00586992 1.16034e-18)
(0.000670226 0.00111515 8.3877e-20)
(4.70168e-05 4.6491e-05 -7.54537e-20)
(0.000842202 3.71569e-05 0)
(0.000862021 1.11531e-05 -3.58804e-20)
(4.6138e-05 7.44934e-06 -1.99174e-19)
(4.01054e-05 8.94741e-06 1.95448e-19)
(0.000804551 1.93547e-05 5.3734e-19)
(0.000946177 0.000111514 6.67375e-19)
(0.000772159 8.19372e-05 0)
(0.000257437 -0.000247175 -4.05986e-19)
(0.000866553 0.000135561 3.93486e-19)
(4.66308e-05 -9.0737e-05 2.05732e-19)
(0.00150732 0.000380989 -2.58633e-18)
(0.000785833 2.48076e-06 0)
(0.000766735 0.000124863 3.74621e-19)
(9.09162e-05 0.000407899 0)
(0.00109635 0.00819546 4.67636e-19)
(0.000463431 0.000516488 -1.23719e-18)
(0.000523638 0.000951883 -1.86154e-19)
(0.00085307 2.49302e-05 -1.46536e-19)
(2.17429e-05 3.35314e-05 0)
(0.000901276 7.64657e-05 6.12377e-19)
(0.00418863 0.00810786 9.18535e-20)
(0.00418475 0.00813475 5.4171e-20)
(0.00433691 0.00785703 4.65185e-19)
(0.0041082 0.00793445 -3.90258e-19)
(0.00612431 0.00985248 9.17876e-20)
(0.00414528 0.00800345 2.15746e-20)
(0.00539247 0.00780261 -5.80161e-19)
(0.00428792 0.00813061 5.21704e-21)
(0.00506339 0.00785774 5.34014e-19)
(0.00425843 0.00809127 -7.52148e-20)
(0.00478961 0.00775751 0)
(0.00422219 0.00808947 -1.13353e-19)
(0.00457215 0.00772704 5.14648e-19)
(0.00420316 0.00809947 1.00593e-19)
(0.00441903 0.00777156 0)
(0.00425534 0.0080992 1.66688e-19)
(0.00424375 0.0077105 7.35773e-19)
(0.00415012 0.00790582 -6.01302e-19)
(0.00414169 0.00802553 4.9178e-19)
(0.00424108 0.00808593 3.59357e-19)
(0.00614398 0.0098645 -5.00741e-21)
(0.00418984 0.00811856 3.81781e-20)
(0.00613827 0.00985705 0)
(3.2949e-05 1.06335e-05 -1.92369e-19)
(0.00204406 0.00650452 2.32098e-19)
(0.000835105 3.73557e-06 1.10314e-19)
(0.000844519 2.02712e-05 0)
(4.75286e-06 5.19501e-06 -4.0439e-19)
(0.000119432 -0.000209138 6.9995e-19)
(2.279e-05 7.04842e-05 2.11193e-18)
(0.000796771 0.000189597 -9.12884e-20)
(0.000656852 6.03647e-06 7.07448e-19)
(5.42106e-06 -6.05855e-06 3.14107e-19)
(2.95154e-05 -5.0402e-05 -1.86918e-18)
(0.00065173 8.00826e-06 1.63711e-19)
(0.000799673 0.000110551 -3.0279e-20)
(0.000654054 -4.26466e-06 1.4842e-19)
(0.000431087 0.000659081 0)
(0.000147786 -0.000150437 1.16688e-18)
(0.000830082 2.32656e-05 1.52839e-19)
(2.61893e-05 3.09112e-05 0)
(0.000100715 0.000557392 -6.38965e-19)
(0.00061831 0.000546632 1.30428e-18)
(0.000332466 0.000723744 0)
(0.000648633 -4.45258e-06 0)
(0.000659523 0.000102704 1.17662e-18)
(2.88535e-05 5.19035e-05 -3.55675e-18)
(2.4203e-05 1.2176e-05 3.78561e-19)
(0.000109714 0.000157546 0)
(6.99219e-05 -4.66996e-05 0)
(7.98248e-05 0.000126229 2.03241e-19)
(0.00088794 0.00018127 3.54169e-19)
(0.000762057 -7.29904e-05 -1.39043e-18)
(3.00321e-05 4.25717e-05 0)
(0.000634262 0.000120707 -6.07749e-20)
(0.000669057 1.06842e-05 -1.56972e-19)
(0.000873565 -3.31554e-06 1.04693e-18)
(0.000246422 0.000544399 6.40054e-19)
(0.000816135 0.000130696 0)
(3.86633e-05 -3.63597e-05 5.45653e-19)
(4.7723e-06 -1.90947e-05 -3.24162e-19)
(0.00118339 -1.71698e-05 0)
(0.000901389 0.0020786 0)
(0.00106193 -0.000155588 0)
(0.00096274 0.000192424 4.32735e-19)
(0.000864041 -6.15063e-06 -2.82279e-19)
(0.000880086 0.0001282 -6.84995e-19)
(0.000664065 3.5089e-05 0)
(4.66923e-05 8.08412e-05 -1.7385e-19)
(0.00017252 0.000331504 1.09526e-18)
(0.000773713 2.63067e-05 -1.19447e-23)
(0.00106252 0.000175718 -6.77956e-19)
(0.00106167 0.000121925 0)
(3.92524e-06 1.63564e-05 2.54349e-19)
(2.97023e-05 -2.38321e-05 -1.96862e-19)
(0.000749356 5.13611e-05 6.96251e-21)
(6.27574e-05 -0.000122178 0)
(0.0010125 0.000263334 9.63026e-19)
(0.00509609 0.00976924 -2.90672e-19)
(0.00302266 0.00963613 1.30417e-18)
(0.000104045 -0.000125145 -1.93883e-19)
(9.65055e-05 -8.74341e-05 1.88424e-18)
(0.00117285 0.000227281 1.69452e-19)
(0.00125156 0.00103476 2.37126e-19)
(0.000817576 1.96003e-05 -7.32634e-19)
(0.000218087 0.000915487 -2.41968e-19)
(0.000766797 0.000866541 -2.20768e-19)
(0.00068013 -4.04583e-05 0)
(0.000118628 0.000747017 0)
(0.000100463 0.000287501 -5.9856e-23)
(0.000835061 -1.25263e-05 -4.29939e-23)
(0.000827991 -2.1211e-05 1.52949e-19)
(0.00258693 0.00195061 -1.25401e-18)
(0.0016806 0.00925501 -1.19857e-19)
(0.000754437 4.22017e-05 4.84932e-19)
(0.00627116 0.00402667 -1.81576e-19)
(0.00619919 0.0100506 -3.11364e-20)
(0.00466788 0.00836555 1.29384e-20)
(0.000765163 0.000108146 -2.17454e-18)
(0.000809057 4.10243e-05 -7.51146e-24)
(1.86242e-05 -1.48659e-05 -3.52566e-19)
(5.22476e-05 0.00010358 -3.53901e-19)
(9.13977e-05 0.000284477 8.87466e-19)
(1.8467e-05 2.31386e-05 4.96888e-19)
(9.48967e-05 0.000242977 3.74607e-19)
(0.000804464 6.34376e-05 0)
(0.00520823 0.00904632 -3.63572e-22)
(0.00139013 0.000609596 -2.65165e-20)
(0.000820486 1.66022e-05 3.57453e-19)
(7.83461e-05 -0.000100904 0)
(0.00192097 0.000650067 5.53946e-19)
(1.61618e-05 1.3254e-05 -2.73734e-19)
(4.18957e-05 3.69648e-05 9.84682e-20)
(0.00132183 0.00142866 6.46638e-19)
(0.000831982 2.81759e-05 1.80876e-19)
(1.64502e-05 -4.29856e-06 -1.72464e-19)
(0.00203214 0.00146943 -1.07009e-18)
(0.000131378 0.000192716 -8.27733e-19)
(0.00398345 0.00848309 -1.11288e-18)
(1.45687e-05 3.71032e-06 8.93093e-20)
(0.000222571 -0.000466844 -1.25082e-18)
(7.19038e-05 -6.19708e-05 4.11025e-20)
(0.00148241 0.000883913 0)
(0.00099622 0.000145195 -4.73152e-22)
(0.00041409 0.000851819 -4.07368e-20)
(0.000840185 1.94083e-05 -2.3171e-19)
(8.53529e-05 0.000201352 7.43641e-19)
(6.40233e-05 -7.69737e-05 4.09404e-19)
(2.48673e-05 2.09105e-05 -9.59648e-20)
(4.34213e-05 0.000110007 -3.24398e-19)
(0.000207013 -0.000345088 -5.47067e-19)
(0.00324441 0.00342643 2.74374e-21)
)
;

boundaryField
{
    back
    {
        type            empty;
    }
    ingreso
    {
        type            fixedValue;
        value           uniform (0.0008 0 0);
    }
    salida
    {
        type            zeroGradient;
    }
    front
    {
        type            empty;
    }
    defaultFaces
    {
        type            noSlip;
    }
}


// ************************************************************************* //
