/*--------------------------------*- C++ -*----------------------------------*\
  =========                 |
  \\      /  F ield         | OpenFOAM: The Open Source CFD Toolbox
   \\    /   O peration     | Website:  https://openfoam.org
    \\  /    A nd           | Version:  7
     \\/     M anipulation  |
\*---------------------------------------------------------------------------*/
FoamFile
{
    version     2.0;
    format      ascii;
    class       volScalarField;
    location    "19";
    object      p;
}
// * * * * * * * * * * * * * * * * * * * * * * * * * * * * * * * * * * * * * //

dimensions      [0 2 -2 0 0 0 0];

internalField   nonuniform List<scalar> 
591
(
0.000123958
0.000123973
0.000123995
0.000123957
0.000123959
0.000124072
0.000124013
0.000123994
0.000116863
0.000123987
0.000124136
0.000122841
0.000124052
0.000119732
0.000123997
0.000124019
0.000123893
0.000124025
0.000121955
0.000123369
0.000123958
-2.37337e-06
0.000124135
0.00012396
0.000124091
0.00012397
0.000124025
0.000124057
0.00012398
0.000124031
0.000124111
0.000124088
0.000124107
0.000124106
0.000124109
0.000123465
0.000124104
0.000123976
0.000124128
0.00012404
0.000124029
0.000124101
0.000123984
0.000124012
0.000124098
0.000124115
0.000119269
0.000124118
0.000123996
0.000124098
0.000124051
0.000124094
2.37243e-05
3.03254e-05
4.7771e-05
0.00012402
0.000124122
0.000124103
0.000124116
0.000123956
0.000124031
0.000123978
0.000123987
0.000124085
0.000122576
0.000123981
0.000123987
0.000124114
0.000120708
0.000124017
0.000123984
0.00012412
0.000124077
0.000124101
0.000124106
0.000124081
0.000123949
0.000124117
0.000123955
0.00012387
0.000123741
0.000124122
0.000124085
0.00012405
0.00012413
0.000123964
0.000124052
0.000124112
0.000124075
0.000123841
0.000124089
0.000124019
0.000124048
0.000123967
0.000124128
0.000124089
0.000123672
0.000123565
0.000123677
0.000124132
0.000124043
0.000123966
0.000124135
0.000123963
0.000124134
0.000123989
0.000123976
0.000124084
0.000124127
0.000124131
0.000124014
0.000124101
0.000124004
0.00012411
0.000124131
0.00012411
0.00012405
0.000124062
0.000123601
0.000124016
0.000123985
0.000124069
0.000124012
0.00012397
0.000124107
0.000120195
0.000124134
0.000124104
0.000123743
0.000124107
0.000123973
0.000123665
0.00012407
0.000124068
0.00012411
0.000124002
0.000122634
0.000124135
0.000123984
0.000123609
0.00012367
0.000124041
0.000124112
0.000124128
0.000124123
7.98363e-06
4.36842e-06
2.8573e-06
3.80772e-05
3.65719e-05
6.2081e-06
3.82333e-05
1.55102e-05
3.72128e-05
1.75968e-05
0.000123982
0.000123961
0.000124121
0.000124118
0.000124124
0.000124122
0.000124116
0.000124114
0.000124116
0.000124117
0.000124075
0.000124126
0.00012412
0.000124126
0.00012405
0.000123408
0.000124128
0.000122112
0.000124097
0.00012411
0.00012405
0.000123983
0.000124109
0.000124119
0.000124114
0.000123518
0.000122466
0.000123054
0.00012348
0.000124113
0.000124117
0.000124083
0.000123959
0.00012411
0.000122956
0.00012333
0.000123961
0.00012411
0.000123813
0.000124102
0.000124108
0.000124077
0.000123782
0.000123944
0.000124107
0.000124121
0.00012411
0.0001239
0.000124091
0.0001239
0.000124126
0.000123988
0.000123982
0.000124122
0.000123757
0.000123949
0.000124005
0.000123587
0.000124074
0.000123736
0.00012402
0.000124013
0.000124096
0.000123511
0.000124016
0.000123931
0.000123952
0.000124081
0.000123846
0.000124011
0.000123917
0.000123818
0.000123943
0.000124129
0.000123882
0.000124122
0.000123953
0.000124096
0.000123961
0.000123956
0.000124128
0.000123867
0.00012412
0.000123866
0.000123913
0.000124002
0.00012397
0.000123983
0.000123985
0.000123729
0.000123945
0.000123888
0.000124087
0.000123971
0.000123786
0.000124075
0.000123341
0.000123911
0.000123271
0.000123098
0.000123975
0.000123934
0.000123968
0.000123964
0.000123901
0.000124126
0.000124002
0.00012407
0.000123992
0.000124006
0.000124017
0.000124075
0.000123734
0.000124121
0.000123777
0.000123669
0.000123996
0.000124099
0.000123682
0.000124123
0.000124021
0.000124068
0.000124081
0.000124007
0.000123949
0.000123734
0.000123938
0.00012395
0.000123988
0.000124021
0.000124096
0.000124106
0.000124117
0.000123904
0.00012399
0.000124099
0.00012411
0.000124107
0.000123926
0.00012412
0.00012399
0.000124089
0.000123889
0.000124119
0.000123887
0.000124097
0.000124029
0.000123953
1.15579e-05
2.17453e-05
0.000123938
0.000123981
0.000124125
0.000123919
0.000124125
0.000123991
0.000124119
0.000124099
0.000123883
0.000124093
0.000123942
0.000124119
0.000123997
-1.10214e-07
0.00012379
0.000124099
0.000124097
0.000123843
0.000123937
0.000123962
0.000124092
0.000123908
0.000124114
0.000124015
0.000123991
0.00012409
0.000123959
0.000123877
0.0001239
0.00012401
4.73246e-05
0.000124107
0.00012409
0.000123968
0.000124114
0.000124039
0.000123994
0.000123964
0.000123979
0.000124101
0.00012406
0.000123914
0.000123985
0.000123919
0.000124115
0.000123925
0.000123955
0.000124
0.000124079
1.9683e-05
2.70349e-05
3.40408e-05
9.76459e-06
0.000123961
3.27497e-05
2.58109e-05
0.000124111
1.87306e-05
1.66884e-05
3.80135e-05
7.93406e-06
3.98772e-05
6.14596e-06
4.08149e-05
4.33826e-06
4.27496e-05
2.54575e-06
3.62815e-05
2.29022e-05
2.91736e-05
1.4719e-05
0.00012382
0.000124121
0.000124019
0.000124038
0.00012091
0.000124134
0.000124116
0.000124087
0.000123939
0.000124121
0.000124113
0.000124105
0.000124102
0.000123884
0.000123972
0.000124096
0.0001241
0.000123945
0.000123844
0.000123812
0.000123417
0.000123886
0.000124132
0.000124108
0.000123989
0.000124131
0.000123841
0.000123972
0.000123795
0.000122899
0.000124103
0.000124113
0.000124128
0.000123834
0.000123979
0.000123801
0.000123993
0.000123959
2.57753e-05
2.16794e-05
3.28247e-05
1.15347e-05
0.000124138
0.000123849
1.95784e-05
2.79463e-05
3.54116e-05
9.71455e-06
0.000123944
0.000124058
0.000123941
0.000123928
0.000124055
0.000124057
0.000123847
0.000124099
0.00012402
0.000123116
0.000123936
0.000123904
5.9172e-05
0.000123248
0.000124126
0.000123979
0.000123877
0.000124115
0.000124117
0.000123967
0.000123747
0.000123997
0.000124045
0.000123821
0.000124071
0.000122945
0.000123937
0.000123918
0.000124064
0.000100757
0.000123908
0.000123512
0.000123909
0.000124129
0.000123805
1.09256e-05
2.07793e-05
3.52265e-05
2.78901e-05
1.34493e-05
8.19753e-07
4.19548e-05
3.44017e-06
4.00412e-05
5.32879e-06
3.93135e-05
7.16223e-06
3.85463e-05
9.03435e-06
3.72193e-05
1.34766e-05
3.1465e-05
3.01933e-05
2.3792e-05
2.49824e-05
1.7469e-05
1.2815e-05
1.54044e-05
0.00012412
0.000102352
0.000123962
0.000123909
0.000124125
0.000124021
0.00012413
0.000123864
0.000124071
0.000124095
0.000124089
0.000124182
0.000123865
0.00012404
0.000123828
0.00012406
0.000123936
0.000124124
0.00012397
0.000123805
0.000123805
0.000124051
0.000124079
0.000124133
0.000124122
0.000124126
0.000124093
0.00012413
0.00012378
0.000123988
0.000124126
0.00012393
0.000124113
0.000123984
0.000123972
0.000123847
0.000124093
0.000124093
0.00012343
0.000121383
0.000123163
0.000123695
0.000123983
0.000123807
0.000124061
0.000124128
0.000124082
0.000124014
0.000123586
0.00012358
0.000124126
0.000124096
0.000124019
0.000124057
0.000123618
5.82312e-05
3.99806e-05
0.000124066
0.000124083
0.00012347
0.000122764
0.000123977
0.000123644
0.000123395
0.000124041
0.000123834
0.000124104
0.000124002
0.000124049
0.000118988
5.43628e-05
0.00012402
8.1084e-05
1.99987e-06
1.11104e-07
0.000123984
0.000123962
0.000124095
0.00012413
0.000124116
0.000124127
0.000124116
0.000123972
-1.87329e-06
0.000122861
0.000124002
0.000124073
0.000122019
0.000124125
0.000124124
0.00012228
0.000124085
0.000124097
0.000121703
0.000124122
7.62645e-05
0.000124123
0.000123561
0.000124087
0.00012239
0.000123679
0.000123692
0.000124021
0.000124124
0.000124081
0.000124123
0.000124137
0.000123984
0.000116149
)
;

boundaryField
{
    back
    {
        type            empty;
    }
    ingreso
    {
        type            zeroGradient;
    }
    salida
    {
        type            fixedValue;
        value           uniform 0;
    }
    front
    {
        type            empty;
    }
    defaultFaces
    {
        type            zeroGradient;
    }
}


// ************************************************************************* //
