/*--------------------------------*- C++ -*----------------------------------*\
  =========                 |
  \\      /  F ield         | OpenFOAM: The Open Source CFD Toolbox
   \\    /   O peration     | Website:  https://openfoam.org
    \\  /    A nd           | Version:  7
     \\/     M anipulation  |
\*---------------------------------------------------------------------------*/
FoamFile
{
    version     2.0;
    format      ascii;
    class       surfaceScalarField;
    location    "19";
    object      phi;
}
// * * * * * * * * * * * * * * * * * * * * * * * * * * * * * * * * * * * * * //

dimensions      [0 3 -1 0 0 0 0];

internalField   nonuniform List<scalar> 
1111
(
5.99368e-09
1.34284e-08
-1.52952e-08
-4.1268e-09
6.13637e-09
-1.14503e-08
1.13076e-08
-1.44298e-08
4.37067e-09
9.84924e-09
2.09921e-10
1.67463e-10
-1.86168e-10
-1.39424e-08
1.39611e-08
-1.38744e-08
1.36908e-08
3.51042e-10
-1.28211e-09
1.4836e-08
1.8747e-09
-3.96269e-09
9.4199e-09
-1.13356e-08
5.87842e-09
-6.47529e-09
-1.24562e-08
1.24196e-08
6.51196e-09
-5.11829e-08
-2.54237e-08
7.66066e-08
-8.06614e-09
7.42974e-09
6.77277e-09
3.76181e-09
3.73262e-10
-3.83737e-09
-2.97702e-10
1.56917e-08
-1.58268e-08
-2.24329e-08
2.2568e-08
-9.65633e-09
-8.36978e-09
9.01163e-09
9.01448e-09
-3.4565e-08
1.71064e-08
-3.1875e-08
4.93335e-08
9.60747e-09
-1.85033e-09
-1.42324e-08
-3.69552e-09
3.6644e-09
-3.4123e-09
3.44341e-09
-3.71262e-09
1.30178e-08
2.00404e-09
-1.13092e-08
8.88664e-09
-2.0698e-09
-1.50161e-08
8.19931e-09
3.88022e-08
-3.19751e-08
-6.82712e-09
-1.90887e-08
-2.79378e-10
1.77464e-08
1.62168e-09
-2.87668e-10
3.7652e-09
-1.80481e-08
1.45705e-08
-6.2241e-08
-3.65305e-09
6.5894e-08
2.15368e-10
-1.4055e-09
-4.185e-10
1.60863e-09
-9.75401e-10
-1.31866e-08
-2.66514e-10
-3.71639e-10
3.62631e-10
2.75521e-10
-9.94852e-09
-8.05263e-09
1.22473e-08
5.75387e-09
8.86994e-10
-2.23041e-09
-8.51123e-09
9.85464e-09
7.64224e-09
1.11448e-09
-8.38138e-09
-3.75337e-10
-2.67879e-09
-7.76452e-09
1.05857e-08
-1.42369e-10
1.11797e-08
-1.60216e-10
-2.13285e-09
-1.12839e-09
1.09182e-09
1.47341e-10
-1.10776e-10
-4.47381e-10
9.97226e-10
6.23943e-10
-1.17379e-09
-7.13742e-10
-4.83763e-11
7.58319e-10
3.79953e-12
4.33229e-11
-1.17059e-09
8.35106e-11
1.04375e-09
-1.88432e-11
-1.06622e-09
5.63904e-10
-1.79995e-08
-1.65311e-09
-6.22492e-10
7.52391e-11
-1.6649e-10
1.32398e-08
-1.32811e-08
3.80649e-09
-4.98173e-10
7.09274e-10
4.86506e-10
-6.97606e-10
-9.18042e-10
-2.69096e-09
2.06515e-09
1.54386e-09
-1.92329e-09
8.34853e-09
-1.03879e-08
-4.81419e-10
-2.3946e-10
9.83874e-11
-8.80413e-09
9.98283e-09
-9.24485e-09
1.16096e-08
-1.65914e-08
5.15917e-09
-1.77286e-10
1.23447e-10
-2.57126e-10
-3.4774e-10
3.28285e-10
9.92659e-10
-2.29124e-10
-5.99564e-08
7.4479e-08
-1.45227e-08
1.23457e-09
-4.40934e-10
-1.44163e-09
6.48003e-10
8.4392e-10
1.02963e-08
-1.35891e-08
2.44889e-09
-2.02176e-10
6.47218e-09
-7.77688e-09
1.50687e-09
-6.32192e-09
5.84415e-09
5.3887e-09
-4.91093e-09
-6.76832e-09
-2.49385e-09
2.31534e-09
6.94683e-09
-3.15133e-10
-9.10128e-08
9.1505e-08
-1.77105e-10
-3.51375e-10
-8.97719e-08
9.01166e-08
6.65784e-12
8.30754e-08
-1.46522e-09
9.05913e-11
-8.17008e-08
-3.34336e-09
9.3244e-11
9.10131e-10
9.85199e-10
-6.60765e-10
4.14332e-09
-1.94959e-09
3.2502e-09
-5.44392e-09
-1.21423e-09
1.10158e-09
-1.50107e-08
6.57014e-09
8.95973e-09
1.06302e-09
-9.66559e-09
-3.57166e-10
-6.15283e-09
1.25208e-08
1.55419e-09
-7.92221e-09
1.40943e-08
-3.78831e-09
3.13301e-09
-1.3439e-08
1.53471e-08
1.62694e-09
-1.54522e-09
1.40971e-11
-2.00957e-08
-7.78966e-09
2.78713e-08
1.34083e-08
-8.11811e-09
-2.30633e-09
7.49135e-09
-1.13379e-08
-1.81616e-10
3.62324e-10
-1.62234e-09
-3.74812e-08
-2.24752e-08
7.83213e-09
-1.82642e-10
3.96007e-09
-6.6842e-09
1.05243e-08
6.14275e-09
-7.62413e-10
4.4632e-10
6.1833e-10
-3.02236e-10
5.98933e-09
-4.54061e-09
3.50098e-09
-4.9497e-09
-7.47806e-10
-7.67363e-10
3.44582e-10
9.07059e-10
-8.71925e-10
-2.75485e-10
-1.30626e-09
1.13436e-09
-1.71261e-08
2.38093e-09
1.44131e-09
1.33039e-08
3.46039e-10
-8.96204e-10
-2.12249e-10
-3.49746e-09
-1.46199e-08
9.91263e-10
5.65368e-09
1.15388e-08
-5.2455e-09
-1.1947e-08
1.63138e-08
5.69351e-10
-1.57932e-08
-1.08994e-09
-8.50122e-10
6.119e-10
6.84542e-10
-1.1636e-09
6.39595e-10
5.24e-10
-6.93438e-09
-3.89971e-09
4.51217e-09
-4.94198e-10
6.99736e-10
-2.05538e-10
1.32851e-09
-1.47745e-08
-5.99051e-10
8.45827e-09
-9.7825e-09
-1.2485e-09
-1.43908e-09
1.2387e-08
4.40356e-09
-4.18496e-09
-1.26056e-08
3.73082e-10
6.87413e-09
-7.54471e-09
6.51473e-09
-2.07537e-09
-8.22907e-09
7.60284e-09
2.7016e-09
-1.79538e-09
6.00109e-10
-1.34246e-08
-3.10752e-10
-1.83446e-10
-6.75515e-10
1.41143e-09
-7.50423e-09
8.31035e-10
1.70867e-08
-1.6039e-09
-1.54458e-08
1.65886e-08
-1.14284e-09
1.17122e-08
1.38997e-08
-1.55038e-08
-1.01081e-08
-9.85633e-10
1.61983e-09
-6.34194e-10
1.82822e-09
-2.40531e-09
5.77083e-10
3.32335e-09
-4.97607e-09
1.65272e-09
2.17576e-09
-1.8352e-09
-3.40568e-10
-1.25801e-08
1.62026e-10
1.2418e-08
2.95382e-09
-7.78059e-10
8.80107e-09
-1.48957e-08
6.32044e-09
-7.19813e-09
1.44403e-10
4.09159e-09
-4.74178e-10
-3.32708e-09
3.47149e-09
-8.15276e-09
9.55924e-09
-1.40648e-09
-1.02365e-09
4.03242e-09
1.13454e-09
1.68444e-08
-1.4509e-08
-1.49151e-09
-5.18648e-09
5.04307e-09
-1.80619e-09
-2.85897e-10
7.26576e-09
-7.20368e-09
-6.2085e-11
7.08193e-09
4.2961e-09
3.89143e-10
-1.54703e-08
1.01753e-08
1.70072e-08
5.66843e-09
8.28763e-09
8.17431e-09
-6.68375e-09
5.25328e-10
-1.31054e-08
1.61734e-09
-3.31635e-10
-1.23807e-08
3.9037e-09
-4.32215e-10
1.46148e-08
-1.40454e-08
-5.24144e-11
-1.21493e-09
-1.34369e-08
6.9783e-09
1.00183e-09
-6.88498e-11
-8.95597e-09
5.45026e-09
-3.1961e-08
-1.25207e-08
-2.19316e-09
1.27699e-09
1.35298e-08
1.10177e-08
-1.07082e-08
-1.38393e-08
1.70313e-08
-3.1086e-09
-1.39227e-08
1.84514e-09
3.7811e-09
-1.55455e-09
-1.02922e-09
-1.10528e-09
1.44241e-09
6.92094e-10
-3.35263e-10
4.73104e-10
4.80489e-10
6.26824e-08
-6.23594e-08
-3.23008e-10
6.29837e-08
-6.3092e-08
1.08228e-10
7.42772e-10
6.47747e-08
-6.56041e-08
8.29398e-10
6.41634e-08
6.11341e-10
-4.09546e-10
-6.65781e-08
9.73931e-10
-6.20551e-08
6.17884e-08
2.66619e-10
1.31425e-09
-6.78923e-08
-6.23904e-08
3.3534e-10
1.19494e-08
-1.29095e-09
1.93928e-09
-3.76857e-09
3.12025e-09
4.88576e-10
-1.359e-09
1.23991e-09
-9.15489e-10
1.55812e-09
-1.85202e-09
1.20939e-09
1.62649e-09
-1.80127e-09
5.37104e-10
-1.23501e-10
-3.28616e-09
3.18262e-09
-2.47386e-09
2.5774e-09
-1.01739e-09
-2.95648e-09
2.68291e-09
-3.99567e-09
-5.45587e-09
6.9509e-10
-8.15175e-10
1.55339e-09
1.24464e-09
-6.62283e-09
7.99317e-09
2.92576e-09
2.13641e-08
-4.33287e-09
-8.70514e-10
3.06577e-10
1.25903e-09
-1.00618e-08
-2.74193e-08
5.51401e-09
-4.5499e-09
-3.06393e-09
2.09982e-09
1.43075e-10
-8.244e-13
6.16069e-10
-2.92601e-09
3.59447e-09
8.51363e-09
9.81284e-10
-7.01977e-10
2.28467e-09
-2.60008e-09
2.43422e-09
1.44776e-08
1.29518e-08
-2.63933e-08
3.20232e-08
6.05517e-09
-2.22157e-08
-1.02328e-08
1.77514e-08
-1.73936e-08
1.06598e-08
-3.49251e-10
8.66722e-11
-1.53869e-09
-2.0169e-09
-1.72909e-09
3.37212e-09
1.44403e-08
-4.95538e-10
-1.33446e-08
2.80051e-10
-3.02176e-09
-2.14767e-10
1.50049e-08
1.72241e-08
1.34011e-08
7.84134e-10
-1.52754e-09
-1.26577e-08
-2.02401e-09
5.95189e-09
1.20888e-08
-9.36855e-10
-1.3443e-09
-3.49805e-09
2.73339e-09
3.94728e-09
2.39216e-09
1.39366e-08
4.16327e-09
-1.36963e-08
1.70003e-08
-1.56882e-09
2.9686e-09
-3.71854e-09
1.90203e-09
-4.4575e-09
1.26508e-08
-1.19059e-08
-1.36138e-08
5.7098e-10
8.58528e-09
-1.96635e-09
1.6717e-09
1.84803e-09
-8.92884e-09
4.93694e-10
-4.08555e-09
-5.89921e-09
1.19936e-08
-1.50232e-08
1.52772e-09
1.64467e-09
-2.09161e-09
1.61207e-08
-1.56737e-08
-9.60818e-10
1.38664e-08
2.47213e-09
-3.66968e-09
-1.36982e-08
7.23914e-09
-1.66994e-08
-7.93327e-09
6.36763e-09
5.81944e-09
1.4069e-08
-9.29081e-09
3.20027e-09
8.79214e-09
9.7341e-09
3.92749e-09
-4.06634e-09
2.12511e-08
-1.86308e-08
4.61881e-09
-9.76936e-09
2.32369e-09
5.11089e-09
1.33308e-08
-7.9331e-11
1.22701e-08
-1.31516e-08
-1.57224e-09
2.73517e-09
-1.95836e-09
7.95426e-10
1.06126e-08
-6.29338e-09
7.21955e-09
-1.0145e-08
1.43869e-09
-4.75499e-09
1.10347e-08
-1.15252e-08
-7.38003e-09
8.78121e-09
9.21143e-09
1.23862e-08
1.01676e-09
-1.34823e-08
1.79881e-09
8.88244e-10
-1.07351e-08
-6.74549e-09
1.01006e-08
-1.87792e-09
2.52431e-09
-8.50767e-09
4.62801e-09
-5.09342e-09
1.11042e-08
-3.49852e-09
-1.12505e-08
3.64484e-09
-4.54796e-09
1.08971e-08
2.21998e-09
1.25053e-09
-4.87832e-09
-1.74324e-08
1.03883e-08
1.19224e-08
9.2939e-10
-1.05613e-08
-9.65108e-09
1.53341e-08
1.19199e-08
2.68841e-09
-9.49738e-09
-1.31601e-08
-2.35323e-10
-1.23252e-08
3.47585e-10
-5.93944e-10
1.0832e-08
1.2406e-08
-8.00888e-09
1.59486e-08
-1.52272e-08
3.44193e-09
-5.10897e-10
1.59777e-09
1.2217e-08
-3.86427e-09
-1.22676e-08
-5.13471e-09
3.32057e-10
4.47102e-09
1.17861e-08
-7.55483e-09
8.32258e-10
-1.03859e-09
1.97628e-09
-2.50992e-09
5.92566e-09
2.59853e-08
-9.59013e-10
-1.36308e-08
1.45898e-08
2.74675e-08
-2.18212e-08
2.17436e-08
1.92466e-08
-1.2383e-08
-2.45746e-09
1.47551e-08
1.04282e-10
-1.18508e-08
-3.70078e-10
-5.9938e-09
-2.0266e-09
2.47718e-09
1.7694e-09
3.0134e-10
-1.05572e-08
1.04835e-08
-2.27721e-10
1.8841e-09
-5.51193e-09
-1.0407e-08
1.01087e-08
-5.96899e-10
-1.01421e-08
-8.55406e-12
-1.02539e-08
-2.98795e-09
-1.16048e-08
2.3327e-09
7.70349e-09
5.06856e-09
3.70302e-10
-1.13266e-08
1.12576e-08
7.26115e-10
-8.31827e-09
5.28573e-09
-5.78697e-10
2.83505e-09
-3.54159e-09
-1.28083e-08
-1.34552e-08
1.28665e-08
-9.76117e-09
-1.56681e-08
9.95906e-09
8.99514e-09
8.17471e-10
2.51016e-09
-1.6141e-08
1.06122e-08
1.65855e-09
4.06834e-09
4.19061e-10
-6.6778e-10
-4.99087e-10
-4.00449e-09
2.77798e-09
-1.79526e-09
4.61566e-10
-5.38352e-10
7.67855e-11
-2.39479e-09
1.23596e-08
1.95507e-09
2.52891e-09
-1.33966e-09
-1.96709e-09
3.68619e-11
-2.66725e-09
-8.38532e-10
1.25337e-08
9.62909e-09
-5.81591e-10
7.17822e-09
-1.17628e-09
-5.42035e-09
-9.77618e-09
-4.96778e-09
3.62907e-10
9.86591e-11
4.33654e-09
1.45345e-09
-1.63513e-08
-7.08354e-10
-9.95864e-10
-1.95002e-09
7.05652e-10
2.48333e-09
6.19429e-08
-2.79848e-10
-6.1663e-08
6.2666e-08
2.44244e-10
-6.29102e-08
-1.40853e-08
1.76632e-10
1.4431e-08
-5.22367e-10
2.46434e-09
-2.15413e-09
2.89379e-09
1.78465e-09
-4.51851e-09
-6.63068e-10
-7.00985e-10
5.68963e-10
-1.70214e-10
6.93832e-10
-5.14231e-10
1.85521e-08
1.12191e-09
-1.53374e-08
-3.78909e-10
-1.97168e-09
1.19951e-08
2.19354e-09
1.75265e-09
4.83962e-09
-1.69335e-09
-7.87251e-08
-2.39842e-08
-4.84008e-09
1.54985e-08
2.3594e-09
-9.90834e-10
-3.47167e-09
-1.47334e-09
8.31367e-10
-7.02322e-10
-1.34312e-08
-3.2267e-10
1.37538e-08
-1.05177e-08
-6.68309e-09
1.04553e-08
-9.13212e-09
8.91209e-09
-2.86839e-10
2.03117e-09
1.29113e-08
-1.25947e-08
-3.16573e-10
8.13137e-10
4.46461e-11
9.3376e-09
1.13738e-09
-1.30913e-09
-4.51047e-10
-1.41094e-08
-5.19907e-10
-1.31654e-08
1.18423e-08
-1.12256e-08
-6.60175e-08
6.49417e-08
1.07582e-09
6.00912e-10
-6.01736e-10
1.1473e-08
-5.65686e-10
2.7334e-11
-1.77081e-09
2.75138e-09
-3.38275e-09
-1.34783e-08
-1.59094e-09
2.51074e-09
-4.5149e-09
-1.36954e-08
1.85906e-09
5.61434e-09
9.30048e-09
-8.68877e-09
-5.92936e-10
2.72503e-11
-9.37038e-09
-1.22525e-08
2.75625e-10
-6.26535e-08
3.85414e-10
6.22681e-08
6.99146e-10
6.34643e-08
-4.16518e-10
-7.08465e-10
-1.42094e-08
9.97709e-11
-6.33231e-08
6.32233e-08
1.18137e-10
-6.32054e-08
6.30873e-08
6.24044e-10
6.13905e-08
4.19676e-11
-6.14325e-08
6.15243e-08
-1.33784e-10
-8.78698e-08
8.84802e-08
9.94333e-13
9.18601e-08
-9.20921e-08
-9.09608e-11
-8.66332e-08
-4.07179e-10
9.13488e-08
1.01687e-10
-8.49335e-08
-7.2583e-10
9.11037e-08
3.53403e-10
-5.43777e-10
2.05375e-09
8.97927e-08
-6.93575e-08
6.15849e-08
-6.19e-08
-6.30049e-08
6.16385e-08
-1.14146e-10
-3.03404e-09
2.67461e-09
-1.33369e-08
1.04017e-10
2.58891e-10
2.61252e-09
1.02756e-08
-1.23454e-08
3.84207e-08
-3.45998e-08
-1.62017e-08
1.41465e-08
-1.00097e-10
-2.12979e-10
3.65341e-10
1.01211e-09
-2.07246e-10
4.40946e-10
4.70579e-09
1.08079e-09
-3.88455e-09
-5.22698e-10
5.97937e-10
-4.2431e-10
-2.42119e-09
1.25993e-08
2.18148e-09
-1.44024e-08
-2.16701e-09
-3.88157e-09
5.69535e-09
1.11027e-09
-2.3463e-09
1.39252e-08
-1.19058e-09
-5.09107e-09
8.34529e-09
-7.74243e-09
-1.88061e-08
-1.27809e-08
7.64819e-09
5.70365e-09
-3.2403e-10
-5.17068e-10
3.31828e-09
1.42926e-08
1.58447e-09
-1.04105e-09
-5.03657e-10
5.3734e-10
-3.19579e-10
1.58235e-08
-4.57239e-10
-1.56889e-08
-5.66903e-09
-3.00256e-09
2.9157e-10
-2.6128e-10
4.55969e-09
-1.87742e-08
6.95941e-10
-1.76526e-09
-2.39614e-09
-2.13746e-09
1.51252e-08
-9.05266e-08
-3.6802e-10
9.19017e-08
-1.52458e-10
-8.92127e-08
-4.59403e-10
9.25192e-08
-9.52365e-11
-9.27038e-08
-6.8528e-10
-1.85804e-09
1.59574e-08
9.22194e-08
-2.45728e-11
-3.33774e-11
1.05543e-11
1.15633e-08
2.00692e-09
-1.04186e-08
-1.17446e-08
-5.48787e-09
8.4419e-09
1.39509e-09
-6.91123e-09
-6.5865e-09
9.13223e-09
-3.00864e-10
1.0139e-08
1.89493e-08
-1.7552e-08
3.00191e-09
-1.23061e-08
3.04036e-09
-7.00435e-08
4.02604e-09
-2.02587e-08
-1.2407e-08
-6.42572e-10
-5.70858e-09
-1.53635e-08
9.22131e-09
-1.50869e-08
6.23178e-10
5.29749e-10
-1.43928e-09
-1.596e-08
1.65148e-08
1.02086e-08
-1.01154e-08
-5.55211e-09
1.46442e-08
-1.53151e-09
8.12447e-10
-1.59573e-09
6.78614e-10
1.19315e-08
3.45621e-09
7.10228e-08
-1.78258e-08
9.72491e-10
-1.44509e-08
-3.33676e-10
-3.75519e-10
-2.63949e-10
6.15382e-08
-6.16334e-08
-6.33565e-08
-6.323e-08
-1.25392e-10
-5.02484e-12
-9.25734e-08
-6.19129e-08
6.39667e-08
6.50322e-08
-6.15595e-08
6.44885e-08
-6.14578e-08
6.37626e-08
-6.15487e-08
6.33555e-08
9.24209e-08
4.21162e-10
-6.56314e-09
7.49336e-08
-6.49143e-08
1.4978e-10
-1.4978e-10
2.40517e-09
-3.89651e-10
1.54648e-08
-1.75206e-10
1.75206e-10
5.42472e-10
1.27571e-09
1.41531e-08
1.26869e-08
-2.51136e-09
3.53762e-09
6.47229e-09
1.90217e-09
4.94727e-10
-3.55299e-10
-2.86108e-09
1.4283e-08
1.47919e-08
-4.34961e-09
1.14086e-08
2.94773e-10
2.30406e-10
3.03698e-09
-1.07424e-09
-1.83089e-09
-5.84865e-09
-1.62921e-10
-5.22459e-10
1.51585e-08
4.08726e-10
1.97875e-10
1.71525e-08
-2.5017e-08
1.70311e-08
2.53149e-09
1.53262e-09
2.0557e-09
-3.46888e-09
1.88555e-08
-1.74423e-08
-1.60972e-10
1.0465e-09
-1.51788e-09
-7.91071e-08
-7.08754e-08
1.48767e-09
-1.26373e-09
7.50023e-10
2.26404e-08
1.80525e-08
-6.41625e-09
2.22194e-10
-4.53227e-09
-1.80768e-09
3.01034e-08
1.47417e-10
1.47584e-08
7.13812e-08
1.25657e-10
5.89976e-10
-2.42912e-10
-3.16053e-10
-3.92566e-09
2.33884e-08
-1.46789e-08
1.27044e-09
-1.35556e-08
-1.0911e-10
2.01914e-08
-2.78853e-08
9.05077e-10
2.67625e-09
-7.75267e-10
)
;

boundaryField
{
    back
    {
        type            empty;
        value           nonuniform 0();
    }
    ingreso
    {
        type            calculated;
        value           nonuniform List<scalar> 
14
(
-1.54286e-08
-1.54288e-08
-1.54288e-08
-1.54288e-08
-1.54286e-08
-1.54283e-08
-1.54288e-08
-1.54288e-08
-1.54286e-08
-1.54286e-08
-1.54288e-08
-1.5428e-08
-1.5428e-08
-1.54286e-08
)
;
    }
    salida
    {
        type            calculated;
        value           nonuniform List<scalar> 2(1.02709e-07 1.13291e-07);
    }
    front
    {
        type            empty;
        value           nonuniform 0();
    }
    defaultFaces
    {
        type            calculated;
        value           uniform 0;
    }
}


// ************************************************************************* //
