/*--------------------------------*- C++ -*----------------------------------*\
  =========                 |
  \\      /  F ield         | OpenFOAM: The Open Source CFD Toolbox
   \\    /   O peration     | Website:  https://openfoam.org
    \\  /    A nd           | Version:  7
     \\/     M anipulation  |
\*---------------------------------------------------------------------------*/
FoamFile
{
    version     2.0;
    format      ascii;
    class       volVectorField;
    location    "19";
    object      U;
}
// * * * * * * * * * * * * * * * * * * * * * * * * * * * * * * * * * * * * * //

dimensions      [0 1 -1 0 0 0 0];

internalField   nonuniform List<vector> 
591
(
(0.000807511 -4.98891e-05 1.22674e-18)
(0.000766606 -4.01277e-05 -6.58686e-19)
(0.000841474 -6.54246e-05 5.76403e-20)
(0.000827966 1.27692e-05 -1.47702e-19)
(0.000815471 1.97328e-05 2.21962e-19)
(0.000738915 -2.51092e-05 -1.38451e-19)
(0.000526497 -0.000393225 7.9445e-19)
(0.000797717 -9.43253e-06 2.08077e-18)
(0.0057676 0.00248898 9.86406e-19)
(0.00077718 -2.42512e-05 2.37674e-18)
(6.42211e-05 0.000179929 1.21734e-18)
(0.000886255 0.00126357 9.40625e-21)
(0.000781668 1.36321e-05 1.28884e-18)
(0.00154953 0.00233995 -7.86794e-19)
(0.000795586 3.6478e-05 -4.38315e-19)
(0.000149246 -0.000259729 2.58221e-22)
(0.000129822 0.000661284 7.05305e-19)
(0.000839718 1.8333e-05 -4.92641e-19)
(0.00201417 0.000387728 4.73508e-19)
(0.0013354 0.000301837 -2.47156e-19)
(0.000823429 2.08557e-05 3.69023e-19)
(0.00338896 0.00691226 -5.26224e-20)
(3.928e-05 7.79603e-05 2.70799e-19)
(0.000815328 1.01499e-05 -4.43859e-19)
(1.96294e-05 -2.47336e-05 3.58999e-19)
(0.000763142 2.24244e-05 0)
(8.90168e-05 0.000479209 1.59981e-19)
(0.000509042 3.39109e-05 -1.78937e-19)
(0.000739105 6.16177e-05 1.13583e-18)
(0.000820503 -1.06541e-05 5.89311e-19)
(6.93535e-05 8.14358e-08 -1.70072e-24)
(4.93089e-05 -5.56343e-05 3.52334e-19)
(4.8188e-05 -4.63766e-06 -4.64108e-20)
(5.71918e-05 -8.92902e-06 0)
(6.42631e-05 -1.56211e-05 1.12996e-18)
(0.00115946 0.000134665 1.8011e-19)
(4.19625e-05 -7.817e-06 4.47346e-20)
(0.000814699 1.5354e-05 4.84804e-23)
(3.71446e-05 5.34093e-05 2.66057e-19)
(7.1827e-05 -0.000154478 -8.54536e-19)
(0.000529319 -0.000170178 9.56741e-19)
(3.5021e-05 -1.02703e-05 4.55024e-20)
(0.000793405 -8.53093e-06 -1.55612e-18)
(0.000817002 8.8418e-06 -6.78493e-19)
(2.55811e-05 -1.23462e-05 0)
(6.48928e-05 1.19226e-05 8.5223e-20)
(0.00133317 0.00451885 8.92359e-19)
(8.74389e-05 2.45764e-05 8.63976e-20)
(0.000786482 4.38276e-05 0)
(0.000361646 -0.000127805 6.7832e-19)
(0.000367024 0.000281488 5.12075e-21)
(0.000382218 8.0392e-05 -1.00427e-18)
(0.00636205 0.0109465 -7.61359e-19)
(0.00623275 0.0107975 1.55978e-20)
(0.00560977 0.0103676 1.45303e-18)
(0.000805017 -4.03266e-05 0)
(7.60282e-05 3.94716e-05 0)
(0.000329853 3.4327e-05 9.53583e-24)
(7.37349e-05 1.65066e-05 -3.46602e-19)
(0.000851281 -6.95021e-06 0)
(0.000601619 2.63253e-05 3.1775e-19)
(0.000797022 8.20178e-06 2.14923e-18)
(0.000761909 -3.38272e-06 -5.42482e-19)
(0.000750428 1.69826e-05 -3.1269e-19)
(0.00170971 0.000538192 5.44406e-19)
(0.000786338 -4.46912e-06 -1.13321e-18)
(0.000802295 3.52323e-07 -5.1372e-19)
(9.64919e-05 5.29952e-06 -1.73456e-19)
(0.000701699 0.00230189 0)
(0.000810323 6.34612e-06 0)
(0.000732867 1.92137e-05 -1.36192e-18)
(4.53308e-05 2.06581e-05 0)
(0.00027899 0.000277572 3.26941e-19)
(5.31514e-05 -2.16231e-05 0)
(5.23392e-05 -7.44371e-06 1.59539e-19)
(3.63699e-05 -5.90912e-05 -3.36759e-20)
(0.000756722 5.50151e-05 2.43488e-19)
(5.23575e-05 1.48245e-05 0)
(0.000775154 6.31216e-05 4.39645e-19)
(0.000741568 0.000301923 2.10826e-19)
(0.000957691 6.03011e-05 -3.98229e-20)
(5.0527e-05 2.91011e-05 -4.52051e-20)
(7.24585e-06 -4.70475e-05 0)
(0.000416039 0.000226135 1.70245e-19)
(1.74695e-06 3.72604e-05 0)
(0.000740442 3.29626e-07 -5.98355e-19)
(0.000544769 -0.00010725 0)
(7.69756e-05 3.38533e-06 -1.74548e-19)
(5.36874e-06 -6.2439e-05 0)
(0.000801892 0.000245158 -3.41452e-19)
(5.15796e-06 -2.9452e-05 0)
(0.000410862 0.000323645 -1.19293e-23)
(0.000503527 0.000118263 0)
(0.000791159 4.28405e-05 1.92937e-24)
(2.99811e-06 2.5319e-05 -4.21886e-20)
(0.000428128 1.3762e-05 1.76447e-18)
(0.00101255 7.60351e-05 4.16365e-20)
(0.000990831 3.1885e-05 6.40961e-22)
(0.000718423 0.000646779 2.69097e-19)
(3.54164e-06 7.01492e-05 0)
(8.81611e-06 -0.000122606 -3.12368e-19)
(2.16469e-05 -0.00021506 -1.10128e-18)
(2.79432e-07 0.00010815 -5.9595e-19)
(0.000735947 -4.21101e-06 0)
(2.85813e-06 0.00013637 0)
(0.00078499 -4.5189e-07 2.18452e-18)
(0.000747932 3.25922e-05 1.49495e-18)
(0.000394725 -2.90818e-05 0)
(5.71484e-05 0.000235007 -8.94408e-19)
(-1.2295e-06 0.000216229 4.95923e-19)
(8.88132e-05 0.000483544 6.25415e-19)
(0.000288744 0.000121591 -9.34827e-19)
(0.000813346 6.70874e-06 1.34747e-19)
(0.000268389 -2.87827e-08 5.31347e-19)
(2.25837e-06 5.00435e-05 0)
(4.77229e-05 0.000323546 -1.08876e-18)
(0.000310671 0.000329943 -1.61749e-19)
(8.69751e-06 -9.07027e-05 1.46614e-19)
(0.000641307 0.000775889 0)
(0.000354401 0.000391108 5.74581e-20)
(0.000799415 -9.62159e-07 1.05438e-18)
(0.000745799 -3.34583e-05 -2.68771e-18)
(8.70816e-06 -0.000162325 0)
(0.000763785 -1.31235e-05 -1.11357e-19)
(0.000316941 -4.98316e-05 1.24388e-18)
(0.00272433 0.000810351 -3.35285e-19)
(-4.20851e-06 0.000168547 -6.12747e-19)
(-1.62532e-05 0.000209798 1.61837e-18)
(0.000862934 1.83707e-05 -3.88902e-20)
(7.53711e-05 -5.47844e-06 -7.49902e-19)
(0.000775001 3.68467e-05 -3.88444e-19)
(0.000914702 2.86063e-05 -4.1004e-20)
(6.91599e-05 0.00038756 -5.96659e-19)
(0.000463614 8.54388e-05 -4.94134e-19)
(6.00236e-05 -1.74647e-06 1.5622e-19)
(0.000817838 -1.60841e-05 -1.05772e-18)
(0.0016581 0.000211099 -1.13762e-18)
(-2.92392e-07 8.38914e-05 4.96142e-19)
(0.000787355 -1.99385e-06 -5.02018e-19)
(0.000873521 0.000538466 -7.85396e-20)
(0.000133698 0.000871253 0)
(0.000548408 6.9285e-05 0)
(0.000266702 6.52407e-05 -1.60817e-18)
(7.00057e-05 6.73286e-05 -1.37464e-18)
(3.67054e-05 2.54498e-05 0)
(0.00411396 0.00753048 -9.66759e-21)
(0.00411758 0.00756227 3.73951e-20)
(0.00432504 0.00776181 -1.27786e-20)
(0.00420113 0.00772311 0)
(0.00419957 0.00760306 5.75004e-19)
(0.00412409 0.00756588 -8.82937e-20)
(0.00420478 0.00804918 4.83472e-19)
(0.00424079 0.007442 0)
(0.00420719 0.00853442 6.15541e-19)
(0.00430211 0.00747148 2.20728e-19)
(0.00079964 -5.31255e-06 -1.35047e-18)
(0.000739755 5.90382e-05 0)
(0.000219815 7.52337e-05 1.2774e-19)
(5.87166e-05 2.13703e-05 8.72208e-20)
(8.60854e-05 5.40354e-05 6.80294e-19)
(0.000115609 5.18549e-05 -3.41803e-19)
(0.000111085 1.63168e-05 0)
(5.74803e-05 8.42591e-06 8.18644e-20)
(0.000204012 0.000148514 0)
(0.000173925 6.20768e-05 -5.24472e-20)
(0.00033259 0.000232761 -5.09412e-21)
(6.25253e-05 5.10861e-05 -4.37834e-19)
(0.000100194 3.73256e-05 -8.52818e-20)
(9.79382e-05 7.19671e-05 1.31246e-21)
(0.000245663 0.000371853 -6.66359e-19)
(0.000154901 0.00108929 0)
(4.81585e-05 5.98118e-05 3.43201e-19)
(0.000171944 0.00184338 0)
(0.000205623 0.000261637 7.04877e-19)
(4.65544e-05 -6.82972e-06 1.11359e-19)
(0.000461345 0.000171802 -1.72362e-19)
(0.000752279 2.78774e-05 -1.85204e-18)
(5.1578e-05 4.97045e-07 4.26347e-24)
(0.000158498 4.0901e-05 2.24646e-19)
(0.000237913 0.000112518 -8.99681e-20)
(0.000864562 0.000698542 3.35023e-19)
(0.000751298 0.00162786 -9.22507e-21)
(0.000412243 0.00135862 -9.44244e-21)
(0.00100414 0.000559713 0)
(0.00011605 -9.98298e-06 1.11922e-18)
(0.000129015 2.97089e-05 -4.43334e-20)
(0.000411869 -0.000230235 -1.13687e-18)
(0.000797311 3.67243e-05 0)
(0.00018504 3.50356e-05 3.63013e-19)
(0.000264502 0.00137583 0)
(0.00102454 0.000737699 -7.30393e-20)
(0.000811441 4.61222e-05 -1.82583e-19)
(9.40058e-05 -1.77502e-05 -3.00082e-19)
(0.000799577 0.000305124 -2.08146e-20)
(8.02219e-05 -2.28346e-05 -5.98867e-19)
(0.000226272 0.000185711 8.6416e-20)
(0.000224807 0.000313144 -3.45118e-19)
(0.000862482 0.000236062 0)
(0.000782132 4.03229e-05 0)
(0.000258453 0.000154793 1.76909e-19)
(0.000235294 2.39677e-05 1.63086e-24)
(0.000185008 0.000215404 0)
(0.000282043 0.000639965 -5.55454e-21)
(0.000326704 2.27385e-05 0)
(0.000330974 0.000591552 0)
(0.000116768 9.44825e-05 -1.34723e-21)
(0.000805252 -1.2701e-05 -9.39062e-19)
(0.000820065 -2.00656e-05 7.7199e-19)
(0.000136077 7.18474e-05 -1.49914e-19)
(0.00093218 0.000150338 8.50052e-20)
(0.000817616 4.99006e-05 3.27673e-19)
(0.000786651 1.79977e-05 -2.93506e-19)
(0.000981196 0.000403055 0)
(0.00042245 0.000128962 6.24706e-19)
(0.000872478 0.000315684 2.09237e-20)
(0.00054713 0.00016754 0)
(0.000274678 0.000437178 4.09744e-19)
(0.000256408 0.000228883 -8.44451e-20)
(0.00108691 0.00038306 -7.82516e-19)
(0.000588122 0.00011908 -1.79382e-19)
(0.000782211 9.14676e-05 -7.36359e-21)
(0.000813531 2.67998e-05 9.29841e-20)
(0.000112986 -9.37307e-05 -1.98213e-18)
(0.000719152 0.000376289 2.19316e-19)
(0.000632157 7.10093e-05 2.30616e-20)
(0.000682653 0.000272286 1.49926e-23)
(0.00070451 0.000443624 -4.09614e-19)
(0.000826475 3.82232e-05 8.86499e-20)
(7.80981e-05 9.16952e-05 0)
(0.000632192 0.000420194 -4.6585e-20)
(0.00018521 0.000112957 0)
(0.000363666 0.000508671 -2.64857e-19)
(0.000309198 0.000181884 0)
(0.000652322 0.00020554 3.55408e-19)
(0.00062484 0.000270962 -4.37452e-20)
(8.34517e-05 0.000110741 6.19134e-19)
(0.000869435 0.000120249 -1.61871e-18)
(6.64501e-05 2.84904e-05 2.57298e-19)
(0.000873799 5.71428e-05 -1.65112e-18)
(0.000790425 5.1378e-05 1.60665e-19)
(0.000785748 4.08545e-06 1.93063e-18)
(0.000785845 4.44603e-07 -1.30129e-19)
(0.000688897 7.4582e-05 0)
(0.000831864 3.10572e-05 8.75845e-19)
(0.000921482 0.000239916 -4.27333e-19)
(0.000742775 7.3943e-05 -4.79462e-19)
(0.000756151 0.000229988 -8.81229e-20)
(0.000246092 -0.000100649 -2.08003e-18)
(0.000710409 9.45651e-05 8.87763e-19)
(0.000620486 0.000589714 0)
(0.000134093 -9.41634e-05 0)
(0.00117409 0.000464957 4.96821e-19)
(0.000805944 -0.000141278 -3.23262e-18)
(0.00127491 0.000415365 5.74363e-19)
(0.00126598 0.000713854 -6.38661e-20)
(0.00078433 5.675e-05 -2.10749e-19)
(0.000809096 7.9553e-05 -1.40334e-18)
(0.000792503 4.27588e-05 1.57158e-18)
(0.000785668 -1.54605e-06 9.57292e-20)
(0.00065728 0.000342224 -4.4059e-20)
(0.000109149 0.000144338 1.61609e-23)
(0.000703176 -6.71337e-05 2.65225e-19)
(0.000256542 -0.000182064 -7.36768e-19)
(0.000597811 0.000192788 0)
(0.000669129 2.09489e-05 9.90716e-20)
(0.000649055 7.88241e-06 -3.81023e-19)
(0.000374857 0.000182534 3.93063e-20)
(0.00076782 0.000497154 -1.65535e-19)
(0.000156825 9.13623e-05 2.25786e-25)
(0.000794207 0.000388173 0)
(0.00095082 0.000321594 4.15987e-20)
(0.000718243 -0.000107168 -6.16607e-19)
(0.00033534 0.000115283 4.97177e-19)
(0.000880199 0.000417112 0)
(5.69412e-05 3.7998e-05 1.33766e-19)
(0.000463485 0.000273552 2.14024e-19)
(0.000437107 -8.16479e-05 -7.09479e-19)
(0.000189694 -0.000128509 -1.05945e-18)
(0.000786275 -3.87646e-06 -4.72962e-19)
(0.000801825 -0.000112143 -1.92781e-19)
(0.000562388 0.000721357 -1.1697e-18)
(0.000824028 5.45792e-05 -6.62819e-20)
(0.000769868 -5.92491e-05 1.25846e-18)
(0.000657626 9.86871e-05 2.27907e-20)
(0.000506642 0.000220553 -1.65741e-19)
(4.41033e-05 -2.61721e-05 -8.76177e-20)
(0.000202502 -2.1651e-05 2.40354e-18)
(3.35869e-05 9.62653e-07 -1.94874e-19)
(0.000771442 7.75211e-05 3.59765e-19)
(0.000628159 0.000142244 0)
(0.000207342 -4.63152e-05 -1.04824e-18)
(0.000133064 5.41198e-06 3.12619e-19)
(0.000138252 -3.14675e-05 -3.27634e-24)
(0.000777512 0.000118114 -3.18562e-19)
(0.000160988 -3.19608e-06 0)
(0.000563927 0.000244517 0)
(0.000111501 0.000340813 -3.62959e-19)
(0.000837709 0.000117321 2.0964e-18)
(2.73658e-05 1.78332e-06 0)
(0.000827729 2.0334e-05 0)
(5.60959e-05 -2.68954e-05 0)
(0.000816613 2.29509e-05 -4.377e-21)
(0.000813291 -6.73872e-05 0)
(0.00413359 0.00746108 7.94234e-20)
(0.0043731 0.00753264 1.38164e-19)
(0.00083612 9.1717e-06 0)
(0.0007444 -6.15577e-05 8.1325e-19)
(0.000154477 0.000138729 1.49261e-19)
(0.000856927 7.40725e-05 7.87918e-19)
(0.000135681 0.000115681 2.34485e-20)
(0.000743014 -5.84428e-05 6.27516e-19)
(4.19405e-05 1.30488e-05 0)
(3.8893e-05 -1.81218e-05 -4.48668e-20)
(0.00086189 6.15288e-05 -4.7898e-19)
(4.92018e-05 -3.68532e-05 -6.69879e-19)
(0.00073291 0.000125531 -4.22656e-20)
(0.000167723 0.000174922 -1.88163e-19)
(0.000802059 1.00741e-05 0)
(0.0046543 0.00826722 1.11728e-21)
(0.00016256 0.000777033 3.33813e-19)
(0.000139388 -4.59453e-05 -9.14258e-19)
(7.74476e-05 -3.54646e-05 -1.16916e-18)
(0.000796371 2.04405e-05 1.89571e-20)
(0.000562253 0.000415904 0)
(0.000393362 0.000430219 -2.56198e-19)
(0.00011739 -4.84549e-05 1.18402e-18)
(0.000754956 4.4807e-06 7.70794e-20)
(5.03008e-05 2.42299e-06 4.07215e-19)
(0.000634301 -5.7473e-05 1.17234e-18)
(0.000795605 1.90705e-05 -6.00232e-19)
(9.42223e-05 -5.42521e-05 1.7096e-18)
(0.000828613 6.07583e-06 -1.5017e-24)
(0.000771507 1.32462e-05 -3.76796e-20)
(0.000845611 6.10227e-05 0)
(0.000786641 4.11649e-05 0)
(0.00593127 0.00722443 2.58217e-19)
(3.5095e-05 2.70999e-06 -1.19591e-19)
(0.000186924 -7.16867e-05 7.72559e-19)
(0.000704004 0.000118832 -6.96869e-19)
(3.97899e-05 -1.02051e-06 2.01493e-19)
(0.000561974 -1.80882e-05 -7.24219e-19)
(0.000705307 7.55623e-06 1.54039e-18)
(0.000679648 0.000153626 -3.55612e-19)
(0.000796293 -3.48511e-05 3.54845e-19)
(0.000101224 -2.77365e-05 1.1165e-18)
(0.000747747 1.04097e-05 -3.19362e-19)
(0.000843217 5.78334e-05 0)
(0.000522307 0.000303077 4.2118e-20)
(0.000843562 3.43307e-05 -9.1885e-19)
(3.45435e-05 -2.0906e-06 9.1107e-19)
(0.000809678 2.52954e-05 9.4059e-19)
(0.000817795 -3.33612e-05 -9.63615e-19)
(0.000689843 1.7475e-05 -5.67509e-19)
(0.000478539 -4.41988e-05 -5.25936e-19)
(0.00433721 0.00748491 2.37187e-19)
(0.00417477 0.00753673 -2.84914e-19)
(0.00421509 0.00760226 2.62559e-19)
(0.00412207 0.00748413 2.46655e-19)
(0.000839308 -3.75727e-07 1.4389e-19)
(0.00446543 0.00751328 0)
(0.00440266 0.00756824 -3.71389e-19)
(5.13418e-05 -4.57436e-07 -9.96706e-19)
(0.00411289 0.00740669 -4.26858e-20)
(0.00411946 0.00740323 -2.17029e-19)
(0.00602291 0.0105999 0)
(0.00656747 0.0109974 4.00592e-20)
(0.0060014 0.0105657 0)
(0.00657659 0.0109464 1.55096e-19)
(0.00598191 0.0105832 2.69422e-19)
(0.0065633 0.0109179 1.83902e-20)
(0.00593001 0.0106063 -7.75582e-19)
(0.00658818 0.010794 1.41298e-20)
(0.00391059 0.00921244 -1.90854e-19)
(0.00409715 0.00743583 4.28072e-21)
(0.00419814 0.00756035 8.13084e-20)
(0.00412498 0.00744133 4.07378e-20)
(0.000846333 0.000176019 4.44626e-20)
(2.00853e-05 2.56515e-06 0)
(0.000641784 -0.000154475 0)
(0.00075932 3.01973e-05 0)
(0.00245425 0.00106696 4.27379e-21)
(0.000705796 -1.89671e-05 1.7117e-19)
(4.88105e-05 8.53369e-06 4.5426e-20)
(2.30742e-05 -3.35911e-05 1.65301e-18)
(0.000836875 2.79284e-05 0)
(3.3838e-05 1.66435e-05 -1.91807e-19)
(0.00014662 0.000232957 0)
(3.61872e-05 -1.31361e-06 0)
(3.00397e-05 -2.10383e-06 0)
(0.000794276 0.000130546 1.13043e-20)
(0.000823809 9.41854e-06 1.75967e-19)
(3.46903e-05 0.000328078 2.47214e-23)
(0.000162112 0.0002788 -1.84251e-18)
(0.000588528 0.000341428 -8.57311e-20)
(0.00088045 0.000125081 6.02979e-19)
(0.000719745 -0.000458535 6.63915e-19)
(0.000315931 0.00110694 0)
(0.000457681 0.000544991 2.71516e-18)
(9.9627e-05 0.0001537 -1.79915e-18)
(4.2449e-05 5.21656e-07 0)
(0.0008374 -1.58765e-05 3.60931e-20)
(2.17846e-05 4.52204e-05 1.64518e-18)
(0.000891097 2.59826e-05 2.71449e-19)
(8.40266e-05 -0.000245228 3.7805e-18)
(0.000919323 4.28622e-05 -2.69252e-19)
(0.00143742 0.000104436 7.46997e-19)
(4.72173e-05 -1.3107e-05 8.26069e-20)
(4.59443e-05 9.11957e-06 -8.58667e-19)
(4.65283e-05 0.000161271 0)
(0.000879799 9.74932e-05 5.98937e-19)
(0.000479974 0.000372119 2.37211e-19)
(0.000821516 1.67547e-05 -3.87828e-20)
(0.000738746 -1.87512e-05 2.54683e-19)
(0.000687521 -0.000236411 0)
(0.00632982 0.0109043 -1.66104e-19)
(0.00641949 0.010974 4.01077e-19)
(0.00617448 0.0107234 -6.13897e-19)
(0.00657363 0.0110595 -5.28312e-20)
(4.33286e-05 0.000122868 8.0025e-19)
(0.000880633 5.55461e-05 1.58457e-22)
(0.00646729 0.0110072 -3.8232e-19)
(0.00628628 0.0108575 5.42623e-19)
(0.00608658 0.010663 -4.18978e-19)
(0.00658263 0.0110344 -5.85415e-20)
(9.82751e-05 0.000583654 -2.02048e-20)
(0.000181908 -0.000175375 -7.93152e-19)
(0.000804575 -2.86131e-06 -7.58978e-19)
(0.00070459 0.000218101 0)
(0.000755863 -2.67002e-06 0)
(0.000184831 0.000392812 3.36396e-19)
(0.000601555 0.00056806 -5.41652e-19)
(2.24001e-05 -3.11332e-06 1.78477e-19)
(0.000211226 0.00046317 -7.38603e-19)
(0.00100033 0.000968712 -1.12733e-19)
(0.000720768 0.000173454 0)
(0.000767307 0.000165701 1.31024e-19)
(0.00636758 0.00587472 1.12695e-18)
(0.000691777 0.00113706 8.28162e-20)
(4.56935e-05 4.5181e-05 -7.45018e-20)
(0.00081631 5.00524e-05 0)
(0.000868062 1.69458e-05 -3.57182e-20)
(4.48391e-05 6.62366e-06 -1.96692e-19)
(3.86515e-05 8.07116e-06 1.93008e-19)
(0.000812634 1.72966e-05 5.33165e-19)
(0.000953843 0.000106848 6.58691e-19)
(0.000718996 5.57718e-05 0)
(0.000233916 -0.000278738 -3.98714e-19)
(0.000880778 0.000138573 3.88568e-19)
(4.11825e-05 -8.63228e-05 2.03143e-19)
(0.00146402 0.000372028 -2.57591e-18)
(0.000740907 6.68572e-07 0)
(0.000773061 0.000135041 3.75707e-19)
(9.03983e-05 0.000409003 0)
(0.00118416 0.00817681 4.61633e-19)
(0.000460143 0.000510764 -1.22368e-18)
(0.000532402 0.000963694 -1.83796e-19)
(0.000858896 2.65562e-05 -1.4508e-19)
(2.00956e-05 3.17658e-05 0)
(0.00090619 7.26634e-05 6.10378e-19)
(0.00409801 0.00745952 8.11348e-20)
(0.00410229 0.0074123 3.86575e-20)
(0.00449313 0.00749668 4.52317e-19)
(0.00442602 0.00759437 -3.20315e-19)
(0.00657172 0.0110632 5.93406e-20)
(0.00389902 0.00737042 5.10552e-21)
(0.00551171 0.00778817 -5.63581e-19)
(0.00409839 0.00756498 4.95841e-21)
(0.00518902 0.00783718 5.10195e-19)
(0.00407964 0.00750154 -4.63182e-20)
(0.00494816 0.00770199 0)
(0.00407773 0.0074872 -7.41203e-20)
(0.00472967 0.00756979 4.91537e-19)
(0.00408983 0.00747726 8.37085e-20)
(0.00455757 0.00750541 0)
(0.00417957 0.0074401 1.6903e-19)
(0.00423471 0.00761606 5.70552e-19)
(0.00445731 0.00757383 -5.60815e-19)
(0.00439683 0.00755521 3.6841e-19)
(0.00413724 0.00750491 3.19328e-19)
(0.00651702 0.0110374 -5.80281e-21)
(0.0041165 0.00745242 2.72589e-20)
(0.0065501 0.0110573 0)
(3.15129e-05 9.75694e-06 -1.89942e-19)
(0.0019764 0.00651927 2.28171e-19)
(0.00084206 -3.55926e-06 1.09454e-19)
(0.000851514 1.99584e-05 0)
(4.18684e-06 4.41846e-06 -3.99288e-19)
(9.52251e-05 -0.000205357 6.91304e-19)
(2.38029e-05 6.72306e-05 2.0864e-18)
(0.000803378 0.000190488 -9.01338e-20)
(0.000743281 8.57644e-06 6.98459e-19)
(4.77737e-06 -5.11855e-06 3.10134e-19)
(2.84005e-05 -4.68255e-05 -1.84595e-18)
(0.000722239 1.79993e-05 1.61527e-19)
(0.000835318 0.00012329 -3.02795e-20)
(0.000739433 -5.04766e-06 1.46697e-19)
(0.000413049 0.000648235 0)
(0.000134104 -0.000151928 1.15215e-18)
(0.00083527 2.01748e-05 1.51013e-19)
(2.45782e-05 2.97847e-05 0)
(0.000101807 0.00056315 -6.31295e-19)
(0.000608508 0.000591152 1.3098e-18)
(0.000341385 0.000724936 0)
(0.000735313 -1.12349e-05 0)
(0.00074696 5.1583e-05 1.1588e-18)
(2.59335e-05 5.38265e-05 -3.51436e-18)
(2.27487e-05 1.13861e-05 3.73785e-19)
(0.00011227 0.000157437 0)
(6.6272e-05 -4.55681e-05 0)
(7.36722e-05 0.000124197 2.0094e-19)
(0.000898294 0.000174433 3.49583e-19)
(0.000790322 -2.62023e-05 -1.36906e-18)
(2.79066e-05 4.09172e-05 0)
(0.000606942 8.08229e-05 -6.00881e-20)
(0.000753884 2.44606e-05 -1.5479e-19)
(0.00083469 9.61809e-06 1.03067e-18)
(0.000251887 0.000546358 6.32319e-19)
(0.000825227 0.000140069 0)
(3.44608e-05 -3.3851e-05 5.38912e-19)
(4.74301e-06 -1.65086e-05 -3.20067e-19)
(0.00113269 7.96812e-07 0)
(0.000947239 0.00218111 0)
(0.00105397 -8.97089e-05 0)
(0.000972722 0.000191218 4.2745e-19)
(0.000833807 -1.20419e-05 -2.81615e-19)
(0.00088953 0.00012526 -6.84026e-19)
(0.000750136 1.21243e-05 0)
(4.51882e-05 7.96624e-05 -1.71643e-19)
(0.000172705 0.000331387 1.08149e-18)
(0.000774856 4.21985e-05 2.35873e-23)
(0.0010632 0.000180581 -6.69424e-19)
(0.00107324 0.000117296 0)
(3.87762e-06 1.42386e-05 2.51141e-19)
(2.76618e-05 -2.23617e-05 -1.944e-19)
(0.000702432 3.46153e-05 6.88196e-21)
(5.42315e-05 -0.000116327 0)
(0.00102025 0.000254482 9.50963e-19)
(0.00501664 0.00974223 -2.82601e-19)
(0.00310958 0.00963014 1.27138e-18)
(9.442e-05 -0.000123226 -1.9144e-19)
(9.0464e-05 -8.51714e-05 1.86047e-18)
(0.00118576 0.000221225 1.67227e-19)
(0.00128848 0.0010501 2.34125e-19)
(0.000825733 1.30273e-05 -7.26888e-19)
(0.00021701 0.000928688 -2.38949e-19)
(0.000774504 0.000874832 -2.18635e-19)
(0.000757133 -1.73032e-05 0)
(0.000107454 0.000713501 0)
(9.93414e-05 0.000287775 -5.0517e-23)
(0.000780593 -1.66523e-05 -2.36978e-23)
(0.000812168 4.06501e-06 1.51146e-19)
(0.00261758 0.00201228 -1.22905e-18)
(0.00175652 0.00925221 -1.1703e-19)
(0.000801923 3.07837e-05 4.84467e-19)
(0.00635861 0.004037 -1.74928e-19)
(0.00669502 0.0111424 -1.74348e-20)
(0.00467844 0.00801585 6.63592e-21)
(0.00079345 6.11585e-05 -2.14634e-18)
(0.000814399 3.97441e-05 -1.21819e-23)
(1.71001e-05 -1.32652e-05 -3.4812e-19)
(4.98828e-05 0.00010177 -3.49431e-19)
(8.62205e-05 0.000285382 8.76321e-19)
(1.70665e-05 2.16852e-05 4.90622e-19)
(9.22209e-05 0.000242799 3.69898e-19)
(0.000816298 4.38566e-05 0)
(0.00531862 0.00935972 1.41644e-20)
(0.00146904 0.000624204 -2.61828e-20)
(0.000822517 2.00531e-05 3.55737e-19)
(7.0834e-05 -9.81517e-05 0)
(0.00187385 0.0007146 5.45025e-19)
(1.49833e-05 1.20942e-05 -2.70277e-19)
(4.06416e-05 3.55567e-05 9.72261e-20)
(0.00131863 0.00139417 6.37347e-19)
(0.000779429 2.8889e-05 1.80979e-19)
(1.42558e-05 -3.8009e-06 -1.70284e-19)
(0.00202718 0.00153914 -1.05477e-18)
(0.000129562 0.000190665 -8.18592e-19)
(0.00392137 0.00847633 -1.08917e-18)
(1.2678e-05 3.31906e-06 8.81824e-20)
(0.000219403 -0.000385091 -1.23941e-18)
(7.00821e-05 -6.14531e-05 4.05841e-20)
(0.00146968 0.000945332 0)
(0.00100723 0.000143873 -4.35864e-22)
(0.000430446 0.000856219 -4.0228e-20)
(0.000813863 1.92865e-05 -2.31417e-19)
(8.62193e-05 0.000198408 7.35009e-19)
(5.82928e-05 -7.46028e-05 4.04228e-19)
(2.34046e-05 2.0065e-05 -9.47531e-20)
(4.10279e-05 0.000107477 -3.20367e-19)
(0.000192123 -0.000363361 -5.37078e-19)
(0.00323557 0.00341956 2.67153e-21)
)
;

boundaryField
{
    back
    {
        type            empty;
    }
    ingreso
    {
        type            fixedValue;
        value           uniform (0.0008 0 0);
    }
    salida
    {
        type            zeroGradient;
    }
    front
    {
        type            empty;
    }
    defaultFaces
    {
        type            noSlip;
    }
}


// ************************************************************************* //
