/*--------------------------------*- C++ -*----------------------------------*\
  =========                 |
  \\      /  F ield         | OpenFOAM: The Open Source CFD Toolbox
   \\    /   O peration     | Website:  https://openfoam.org
    \\  /    A nd           | Version:  8
     \\/     M anipulation  |
\*---------------------------------------------------------------------------*/
FoamFile
{
    version     2.0;
    format      ascii;
    class       volScalarField;
    location    "5";
    object      p;
}
// * * * * * * * * * * * * * * * * * * * * * * * * * * * * * * * * * * * * * //

dimensions      [0 2 -2 0 0 0 0];

internalField   nonuniform List<scalar> 
6388
(
1.14601e-05
1.1485e-05
1.11775e-05
1.10821e-05
8.82204e-06
7.34329e-06
1.09764e-05
1.06573e-05
1.11287e-05
1.06414e-05
9.20094e-06
1.05944e-05
1.08979e-05
7.47807e-06
1.09047e-05
1.08175e-05
1.06844e-05
8.06906e-06
1.08361e-05
1.09788e-05
1.0801e-05
1.0747e-05
8.15382e-06
8.18567e-06
8.10091e-06
1.08027e-05
1.09108e-05
1.07253e-05
1.07128e-05
1.11537e-05
7.92745e-06
7.9848e-06
8.87748e-06
9.82296e-06
7.73386e-06
9.00421e-06
8.27508e-06
1.02287e-05
1.0905e-05
7.507e-06
1.0904e-05
1.08734e-05
1.13958e-05
8.30103e-06
1.11562e-05
1.05891e-05
1.15076e-05
1.10079e-05
1.11332e-05
1.07598e-05
1.11752e-05
1.12691e-05
1.09895e-05
1.09176e-05
1.05208e-05
1.11978e-05
1.07162e-05
1.10632e-05
1.09711e-05
1.09788e-05
8.08299e-06
1.11093e-05
1.07727e-05
1.10528e-05
1.05161e-05
1.11848e-05
1.06409e-05
1.08252e-05
1.02519e-05
1.11795e-05
9.97246e-06
7.83212e-06
7.31989e-06
9.93553e-06
1.11902e-05
1.1022e-05
7.66052e-06
1.11216e-05
1.10844e-05
8.01565e-06
1.06584e-05
7.1869e-08
6.75067e-08
6.78521e-08
6.61703e-08
7.20141e-08
9.36791e-06
7.2998e-08
6.84392e-08
6.95477e-08
7.25801e-08
6.52727e-08
1.11878e-05
1.1282e-05
1.08225e-05
1.12126e-05
1.11836e-05
7.67146e-06
1.11106e-05
1.07282e-05
1.08102e-05
1.02273e-05
1.07003e-05
1.06235e-05
1.06476e-05
9.57189e-06
1.10879e-05
1.06446e-05
1.07557e-05
1.11809e-05
1.09371e-05
8.42455e-06
8.64196e-06
1.09854e-05
1.1323e-05
1.12644e-05
9.11948e-06
1.13653e-05
1.09101e-05
1.11874e-05
7.02016e-06
1.11538e-05
1.07995e-05
1.11309e-05
8.19699e-06
1.11396e-05
1.11279e-05
1.08925e-05
1.11683e-05
1.08438e-05
8.50393e-06
1.06801e-05
1.10986e-05
1.1221e-05
1.11919e-05
8.25151e-06
7.94158e-06
1.01316e-05
1.11437e-05
1.06761e-05
8.64796e-06
1.12309e-05
1.0795e-05
1.11638e-05
1.1169e-05
1.06808e-05
1.10659e-05
1.11782e-05
1.07987e-05
1.12916e-05
1.06403e-05
1.11034e-05
1.0678e-05
8.37044e-06
1.05644e-05
1.0924e-05
1.01638e-05
1.11823e-05
8.26262e-06
9.74345e-06
1.11977e-05
1.12241e-05
7.60369e-06
1.00892e-05
1.11809e-05
9.86806e-06
7.21193e-06
7.13525e-06
7.06243e-06
1.10889e-05
7.52916e-06
1.06685e-05
1.07407e-05
1.11774e-05
1.03197e-05
7.89132e-06
1.1118e-05
1.09289e-05
1.13162e-05
1.06574e-05
1.03374e-05
1.0418e-05
7.70203e-06
6.63871e-06
1.07187e-05
9.69837e-06
1.11823e-05
8.30151e-06
1.0601e-05
8.45149e-06
8.63506e-06
1.05101e-05
8.8285e-06
1.15485e-05
1.07081e-05
1.11387e-05
1.11802e-05
1.11431e-05
7.35682e-06
6.87064e-06
6.73901e-06
7.48805e-06
1.11747e-05
6.86757e-06
6.93793e-06
7.01315e-06
7.23634e-06
8.14932e-06
1.11656e-05
1.0968e-05
7.59891e-06
7.96827e-06
7.32995e-06
9.84186e-06
5.38744e-06
5.2583e-06
5.20448e-06
5.14886e-06
7.78916e-06
1.08046e-05
5.38017e-06
1.11374e-05
6.62115e-06
8.04194e-06
1.11646e-05
6.51918e-06
8.51541e-06
5.74353e-06
5.59936e-06
5.54133e-06
5.48313e-06
1.0062e-05
6.69407e-06
1.10491e-05
1.06546e-05
5.72835e-06
9.82136e-06
6.97531e-06
6.2696e-06
7.41307e-06
6.15606e-06
6.09344e-06
6.02782e-06
9.47398e-06
6.49839e-06
6.4321e-06
6.36305e-06
6.81862e-06
7.7068e-06
9.02392e-06
1.11533e-05
7.40736e-06
7.05168e-06
6.83846e-06
6.76671e-06
6.69618e-06
7.17874e-06
6.99856e-06
6.78383e-06
7.29289e-06
4.49264e-06
7.21957e-06
7.37284e-06
4.49452e-06
4.85002e-06
6.53e-06
6.6002e-06
6.66894e-06
4.91211e-06
4.86186e-06
4.80986e-06
4.81606e-06
5.09082e-06
7.21565e-06
1.06343e-05
5.13729e-06
1.11663e-05
8.95675e-06
5.61251e-06
5.1588e-06
6.45764e-06
5.63489e-06
5.66463e-06
1.08034e-05
5.66365e-06
1.09453e-05
6.14137e-06
5.96587e-06
1.08064e-05
7.50492e-06
7.25236e-06
1.06688e-05
8.40008e-06
1.09144e-05
6.1806e-06
6.31712e-06
1.11875e-05
6.17709e-06
7.08179e-06
1.07928e-05
8.70314e-06
8.62862e-06
1.11982e-05
6.06154e-06
6.09661e-06
6.52928e-06
5.81927e-06
5.88156e-06
5.9429e-06
5.30175e-06
1.12021e-05
8.8164e-06
1.11545e-05
9.44158e-06
7.79147e-06
1.11612e-05
8.37929e-06
5.62698e-06
1.0932e-05
6.71732e-06
6.99383e-06
1.10837e-05
7.1388e-06
6.92245e-06
5.9654e-06
1.07362e-05
1.02027e-05
8.20517e-06
8.33272e-06
4.30768e-06
4.66971e-07
4.39957e-07
4.49831e-07
4.46292e-07
4.54237e-07
5.14787e-06
4.74523e-06
8.45132e-06
8.2734e-06
1.00761e-05
1.05018e-05
5.20858e-06
4.6473e-06
1.10682e-05
4.71541e-06
6.31549e-06
1.09591e-05
4.779e-06
5.92024e-06
5.66042e-06
5.71965e-06
5.78012e-06
8.11408e-06
8.28808e-06
5.05821e-06
6.29454e-06
8.52972e-06
5.56021e-06
9.14305e-06
6.44977e-06
6.19558e-06
6.26273e-06
6.32728e-06
7.73227e-06
1.06769e-05
9.17143e-06
3.98315e-06
5.5661e-06
1.07184e-05
5.31558e-06
5.37265e-06
5.42845e-06
4.44063e-06
8.37797e-06
8.42458e-06
6.13297e-06
9.79699e-06
4.75372e-06
5.98664e-06
5.96666e-06
1.06818e-05
1.11655e-05
4.56058e-06
4.51381e-06
4.46564e-06
1.06056e-05
1.06583e-05
6.00844e-06
5.83193e-06
1.11025e-05
5.88008e-06
6.3729e-06
5.43341e-06
5.49374e-06
1.11612e-05
8.04917e-06
5.78959e-06
8.88749e-06
5.4868e-06
5.83629e-06
1.07146e-05
1.09201e-05
1.07295e-05
1.11263e-05
5.41313e-06
6.34664e-06
6.50289e-06
1.09015e-05
1.1199e-05
4.13405e-06
1.0584e-05
1.1171e-05
1.11859e-05
3.80102e-06
3.76047e-06
3.84041e-06
9.32262e-06
1.11318e-05
1.11424e-05
5.0545e-06
1.08628e-05
1.11729e-05
4.81586e-06
5.33149e-06
1.12188e-05
3.8069e-06
4.21688e-06
9.79944e-06
1.10985e-05
6.13909e-06
1.11756e-05
4.16957e-06
1.01936e-05
5.2562e-06
8.71485e-06
4.2403e-06
1.12452e-05
4.98625e-06
4.32281e-06
5.31588e-06
4.98007e-06
5.03392e-06
5.08594e-06
9.98492e-06
4.98943e-06
5.78788e-06
4.15769e-06
4.31381e-06
1.08325e-05
3.94513e-06
1.074e-05
8.77748e-06
5.79887e-06
8.20685e-06
9.64913e-06
5.02836e-06
1.10432e-05
1.02381e-05
3.86163e-06
4.63886e-06
4.689e-06
4.73749e-06
4.65324e-06
3.87925e-06
3.93558e-06
3.97822e-06
4.01929e-06
4.57193e-06
1.1087e-05
3.79856e-06
5.47015e-06
1.11741e-05
4.60132e-06
1.09387e-05
4.67177e-06
8.54657e-06
1.05947e-05
1.12467e-05
4.53686e-06
8.24647e-06
9.07311e-06
5.23867e-06
4.39498e-06
4.91856e-06
4.13858e-06
4.95666e-06
4.42154e-06
1.11807e-05
7.12977e-06
4.35341e-06
1.11952e-05
3.96928e-06
4.03843e-06
4.27839e-06
1.08019e-05
4.05918e-06
8.06422e-06
4.88015e-06
4.88836e-06
8.69784e-06
6.90907e-06
1.1033e-05
1.11935e-05
4.47735e-06
1.01594e-05
4.10745e-06
3.98415e-06
1.11817e-05
8.94699e-06
1.09711e-05
4.60091e-06
9.46102e-06
3.64054e-06
1.12135e-05
1.03409e-05
8.59691e-06
1.08325e-05
1.06655e-05
3.7726e-06
8.76205e-06
3.48521e-06
8.35479e-06
8.9452e-06
8.10798e-06
1.11782e-05
9.25578e-06
1.10653e-05
1.07775e-05
1.08334e-05
9.56721e-06
1.11235e-05
3.61516e-06
1.07334e-05
6.84826e-06
1.0683e-05
1.11815e-05
1.10706e-05
1.0054e-05
1.11774e-05
1.07429e-05
8.43945e-06
1.12112e-05
1.1161e-05
1.11965e-05
1.11543e-05
1.09642e-05
1.12118e-05
1.06792e-05
1.12074e-05
1.1171e-05
1.10064e-05
1.08374e-05
9.75522e-06
1.11639e-05
8.65658e-06
1.09586e-05
1.11736e-05
9.63379e-06
1.11353e-05
1.09644e-05
1.05975e-05
7.92097e-06
1.0958e-05
1.10635e-05
1.01007e-05
9.43851e-06
1.11396e-05
1.04333e-05
1.11813e-05
9.12052e-06
9.34146e-06
1.11138e-05
1.0938e-05
1.11199e-05
8.84414e-06
1.11798e-05
8.28111e-06
7.4158e-07
7.71669e-07
7.35931e-07
7.44016e-07
7.5177e-07
3.26547e-06
3.30045e-06
3.33494e-06
1.06245e-05
9.20816e-06
9.67394e-06
1.07673e-05
1.09127e-05
9.09626e-06
1.10929e-05
8.56576e-06
1.11986e-05
1.11803e-05
1.16107e-05
7.02109e-06
9.6174e-06
1.12043e-05
9.33421e-06
1.12166e-05
1.0709e-05
1.11907e-05
1.11951e-05
1.10349e-05
1.03321e-05
1.11781e-05
8.36308e-06
1.04985e-05
1.11829e-05
1.08179e-05
1.08865e-05
1.1161e-05
1.00041e-05
8.50904e-06
1.11727e-05
8.55831e-06
9.58388e-06
1.11088e-05
3.37548e-06
2.67713e-07
2.67121e-07
2.70092e-07
2.63169e-07
1.05278e-05
2.41594e-07
1.04114e-05
1.08855e-05
7.33731e-06
1.11845e-05
9.7555e-06
1.08075e-05
1.09137e-05
3.37303e-06
8.083e-06
1.11096e-05
6.48611e-06
1.11953e-05
1.11892e-05
2.98895e-06
8.90434e-06
1.05501e-05
1.04659e-05
8.35278e-06
3.07579e-07
3.45936e-07
3.27443e-07
3.27773e-07
3.59701e-07
1.04608e-05
8.7783e-06
1.09304e-05
9.44746e-06
1.08824e-05
1.11606e-05
1.01426e-05
8.98401e-06
3.07411e-06
9.83812e-06
9.49914e-06
1.02432e-05
7.92728e-06
1.11618e-05
1.12462e-05
1.12225e-05
1.10855e-05
8.01968e-06
1.12129e-05
1.11857e-05
1.09875e-05
8.10657e-06
1.11427e-05
1.03872e-05
3.38201e-07
3.36102e-07
3.1445e-07
3.07928e-07
3.15477e-07
1.11081e-05
1.11572e-05
1.11237e-05
2.69915e-07
2.83088e-07
2.88721e-07
2.84448e-07
2.89274e-07
8.84577e-06
8.25808e-06
1.07746e-05
6.99425e-06
1.09961e-05
1.11192e-05
8.67938e-06
1.09496e-05
9.10024e-06
8.91373e-06
1.06281e-05
1.05644e-05
1.06565e-05
1.08728e-05
8.46452e-06
1.10365e-05
1.11821e-05
1.10959e-05
1.08613e-05
1.09742e-05
1.0784e-05
1.01919e-05
1.04818e-05
1.11992e-05
1.11556e-05
1.11525e-05
1.11096e-05
1.11857e-05
1.10789e-05
7.72282e-06
8.81516e-06
8.11194e-06
9.51038e-06
1.07115e-05
1.1199e-05
8.46035e-06
1.0818e-05
9.30129e-06
1.08044e-05
1.07594e-05
1.11789e-05
9.66776e-06
9.00694e-06
1.12312e-05
1.11073e-05
1.11421e-05
5.73033e-06
1.07933e-05
1.08131e-05
9.24708e-06
3.32716e-06
1.11988e-05
1.11393e-05
9.94889e-06
1.11955e-05
3.95702e-06
1.09754e-05
1.0229e-05
6.83165e-06
1.06826e-05
1.11827e-05
1.06593e-05
1.10207e-05
7.65573e-06
3.44269e-06
1.00229e-05
8.87194e-06
7.95626e-06
8.47487e-06
7.74809e-06
9.511e-06
1.11101e-05
9.39951e-06
1.01445e-05
1.10949e-05
1.09569e-05
1.11655e-05
8.70449e-06
1.09205e-05
7.20541e-06
7.1344e-06
7.05556e-06
4.41643e-07
1.11816e-05
1.11816e-05
1.09323e-05
1.11715e-05
1.0136e-05
4.33928e-07
4.60538e-07
4.46703e-07
4.48375e-07
9.87664e-06
9.96099e-06
1.08639e-05
9.78917e-06
1.10582e-05
1.11775e-05
1.09259e-05
1.08912e-05
1.11622e-05
9.31508e-06
1.11794e-05
1.1141e-05
1.12013e-05
1.01564e-05
1.10433e-05
1.12068e-05
1.0869e-05
1.11807e-05
1.12009e-05
1.03813e-05
7.52022e-06
1.07617e-05
1.1038e-05
9.90076e-06
6.66072e-06
1.11544e-05
1.01873e-05
1.05265e-05
9.75445e-06
1.09117e-05
1.06621e-05
8.54328e-06
9.16726e-06
9.21502e-06
1.05416e-05
1.11778e-05
1.11711e-05
8.2917e-06
7.25195e-06
9.63312e-06
1.12165e-05
1.11396e-05
1.08405e-05
1.11901e-05
1.07335e-05
9.34298e-06
1.14931e-05
8.87542e-06
1.08151e-05
7.98387e-06
7.03878e-06
7.61123e-06
1.11849e-05
1.08398e-05
1.12193e-05
1.07449e-05
1.11737e-05
1.12692e-05
1.11548e-05
7.42344e-06
1.10885e-05
1.07202e-05
1.11881e-05
1.05791e-05
7.37231e-06
1.11595e-05
3.15839e-06
1.11452e-05
1.06235e-05
1.07556e-05
1.05289e-05
4.37899e-06
7.79395e-06
1.11125e-05
1.12887e-05
1.11912e-05
1.12259e-05
3.25787e-06
1.11915e-05
1.09214e-05
1.05219e-05
9.177e-06
1.07853e-05
7.7178e-06
8.25864e-06
8.0876e-06
1.09241e-05
7.78674e-06
7.76817e-06
1.64419e-06
4.79929e-06
4.75005e-06
4.69943e-06
1.12467e-05
1.09491e-05
1.11802e-05
8.09651e-06
1.10819e-05
1.02575e-05
1.11567e-05
9.06092e-06
1.1194e-05
1.10261e-05
1.09125e-05
3.16403e-06
3.13126e-06
3.09815e-06
8.76546e-06
1.11987e-05
1.07599e-05
9.32202e-06
1.11313e-05
7.03763e-06
8.08872e-06
1.09864e-05
6.09027e-07
5.93037e-07
5.72242e-07
1.06132e-05
1.74521e-06
1.11128e-05
1.07824e-05
5.2506e-06
5.96084e-07
1.06293e-05
1.08789e-05
7.78691e-06
7.95266e-06
1.08722e-05
1.09765e-05
7.15641e-06
7.6413e-06
7.80385e-06
7.9506e-07
9.67762e-06
1.10621e-05
8.24675e-06
8.1333e-06
1.0523e-05
4.15971e-06
9.65882e-06
6.1199e-06
4.49588e-06
1.10623e-05
1.11582e-05
7.67111e-07
1.11051e-05
7.59276e-06
7.43452e-06
9.4537e-06
6.21874e-06
1.00227e-05
6.829e-06
1.10356e-05
1.35367e-06
1.10728e-05
7.45568e-06
1.11952e-05
6.48857e-06
1.05477e-05
1.48751e-06
1.45653e-06
1.47161e-06
1.45747e-06
1.04629e-05
2.8922e-06
8.71107e-06
2.10057e-06
1.28955e-06
7.37371e-06
1.96208e-06
9.67648e-06
1.08224e-05
8.9345e-06
3.20224e-06
6.81537e-06
9.83123e-06
1.10585e-05
1.08192e-05
7.58005e-06
1.11914e-05
1.10861e-05
3.17266e-06
3.13995e-06
3.10659e-06
1.07359e-05
1.12059e-05
3.67062e-06
3.63286e-06
3.59428e-06
6.8854e-06
6.73553e-06
6.66775e-06
6.59542e-06
1.99198e-06
1.08237e-05
1.16746e-06
7.62749e-06
1.11758e-05
2.93845e-06
1.3565e-06
1.10897e-05
1.11701e-05
2.23576e-06
1.12011e-05
1.11923e-05
1.0185e-05
1.09307e-05
1.66122e-06
1.62664e-06
1.6436e-06
2.82053e-06
1.46612e-06
1.77886e-06
1.76011e-06
1.74185e-06
1.06186e-05
1.05637e-05
2.31427e-06
2.4749e-06
2.42341e-06
2.44914e-06
3.20775e-06
1.4265e-06
1.11919e-05
2.12707e-06
2.08282e-06
2.10481e-06
1.07485e-05
1.08059e-05
9.65923e-07
1.07814e-05
1.10569e-05
1.92892e-06
1.11962e-05
1.11941e-05
1.10345e-06
1.09151e-06
1.08049e-06
1.07985e-06
7.71987e-06
1.09323e-05
1.06193e-05
9.31117e-07
7.76077e-06
7.36095e-06
1.95483e-06
1.07849e-05
1.12956e-06
3.03042e-06
2.89798e-06
1.10271e-05
1.00571e-05
1.34486e-06
2.82396e-06
2.76518e-06
2.79472e-06
3.78456e-06
7.54195e-06
2.87662e-06
1.11466e-05
3.21021e-06
2.41428e-06
1.62885e-06
1.62066e-06
1.48144e-06
1.3101e-06
2.00882e-06
1.96702e-06
1.98769e-06
1.08849e-05
1.96664e-06
1.92574e-06
1.946e-06
5.42697e-06
2.53477e-06
1.76751e-06
3.69539e-06
2.30028e-06
2.25242e-06
2.27626e-06
1.52248e-06
2.64949e-06
2.4862e-06
3.43098e-06
3.46773e-06
3.5039e-06
2.00591e-06
2.76819e-06
1.10483e-05
2.60261e-06
9.42075e-06
1.11979e-05
3.29026e-06
2.94634e-06
2.84861e-06
3.70899e-06
1.11677e-05
3.66497e-06
3.11128e-06
1.65504e-06
1.95242e-06
1.9118e-06
1.93191e-06
2.35684e-06
2.33221e-06
2.30781e-06
9.40488e-06
2.96056e-06
2.92926e-06
2.99155e-06
2.21253e-06
2.60931e-06
1.08546e-06
1.06593e-05
2.0618e-06
1.11739e-05
3.48601e-06
1.11236e-05
2.64859e-06
2.59347e-06
2.62108e-06
4.66193e-06
1.11843e-05
1.02738e-05
1.095e-05
8.36691e-06
1.11336e-06
1.11692e-05
1.83521e-06
1.81582e-06
1.79702e-06
3.45259e-06
1.11151e-05
2.18323e-06
2.16033e-06
2.1378e-06
3.63436e-06
2.72681e-06
1.04132e-06
2.70492e-06
2.67678e-06
2.64866e-06
1.13798e-06
1.25487e-06
1.48293e-06
1.11794e-05
1.06773e-05
2.93214e-06
1.09821e-05
2.57202e-06
3.11745e-06
2.22717e-06
1.11921e-05
2.99779e-06
2.93539e-06
2.96682e-06
1.65614e-06
1.59716e-06
2.82921e-06
2.08181e-06
9.40297e-06
2.71289e-06
3.53442e-06
1.23365e-06
1.82321e-06
2.53131e-06
2.47866e-06
2.50491e-06
1.93459e-06
1.60838e-06
2.47718e-06
1.10443e-05
1.08904e-05
1.08957e-05
1.08721e-06
2.7739e-06
1.09034e-05
2.44544e-06
1.06325e-05
2.85725e-06
1.04862e-05
3.54204e-06
1.91563e-06
1.67091e-06
2.59668e-06
1.11468e-05
4.85233e-07
5.18539e-07
5.03587e-07
2.71637e-06
1.82088e-06
3.29218e-06
4.82927e-07
9.92341e-07
1.11934e-05
2.56132e-06
2.5659e-06
2.59308e-06
1.73606e-06
1.75411e-06
1.77292e-06
3.17259e-06
2.66611e-06
1.79396e-06
3.45738e-06
3.46179e-06
2.77135e-06
1.73721e-06
9.47074e-06
7.49971e-06
3.42235e-06
1.99027e-06
1.83151e-06
1.19824e-06
4.55737e-06
1.11605e-05
2.5564e-06
2.8799e-06
2.82e-06
2.84999e-06
1.98251e-06
1.50875e-06
2.65785e-06
9.84036e-06
3.03039e-06
2.80648e-06
2.44879e-06
1.07355e-05
3.00105e-06
5.59259e-07
1.60402e-06
1.58703e-06
1.57064e-06
1.57326e-06
6.89853e-06
7.89712e-07
3.06514e-06
1.09826e-05
3.62414e-06
1.11582e-05
4.90329e-06
1.10666e-05
2.30578e-06
2.26485e-06
3.8068e-06
3.51512e-06
9.16846e-06
3.05406e-06
3.02243e-06
2.99053e-06
4.61244e-06
2.39004e-06
7.79063e-06
7.95688e-06
4.29146e-06
4.33767e-06
4.38268e-06
2.39296e-06
1.07239e-05
2.62644e-06
2.75161e-06
2.1276e-06
8.38716e-07
8.57899e-07
9.49341e-06
2.74484e-06
8.17623e-07
3.06977e-06
2.70763e-06
3.6644e-06
5.8819e-07
5.77296e-07
5.75372e-07
5.99108e-07
3.16704e-06
5.95522e-07
5.90185e-07
5.84242e-07
6.11469e-07
5.91324e-07
3.34462e-06
1.06676e-05
2.58819e-06
2.61574e-06
2.64323e-06
3.85251e-06
1.09359e-05
1.09957e-05
2.2778e-06
4.97228e-06
4.92127e-06
4.86883e-06
2.39015e-06
1.06715e-05
1.11373e-05
4.11279e-06
4.20022e-06
4.15718e-06
1.06577e-06
1.06475e-06
1.07577e-06
1.08743e-06
5.15914e-06
1.05864e-05
9.72732e-06
1.07795e-05
2.61312e-06
4.24482e-06
2.98795e-06
7.05956e-06
3.11088e-06
2.12504e-06
2.35002e-06
1.13362e-05
1.20664e-06
9.46389e-06
1.06459e-05
1.06544e-05
2.25872e-06
4.28477e-06
1.07751e-05
3.68622e-06
2.39612e-06
2.3554e-06
3.68126e-06
1.11355e-05
8.65354e-06
8.47663e-06
1.11784e-06
3.6455e-06
2.43008e-06
2.91085e-06
8.6204e-06
4.31807e-06
6.91007e-06
6.84152e-06
6.76621e-06
2.72109e-06
3.03476e-06
4.04613e-06
1.03162e-05
1.04643e-05
8.18355e-07
1.05483e-05
9.74575e-07
1.00102e-06
8.76099e-07
8.5376e-07
1.44202e-06
4.03715e-06
1.80133e-06
9.51465e-07
7.30402e-06
2.21338e-06
9.21122e-07
3.34766e-06
3.31319e-06
3.27794e-06
3.36209e-06
3.47831e-06
1.06477e-05
3.3469e-06
1.12048e-05
1.41743e-06
1.06054e-05
3.08717e-06
1.1126e-05
7.7401e-06
2.76296e-06
4.47927e-06
1.11538e-05
5.63124e-06
4.01975e-06
3.32427e-06
1.83475e-06
4.13881e-06
8.29835e-06
3.10063e-06
1.12087e-06
1.15009e-06
2.84716e-06
3.96241e-06
1.12138e-05
3.77932e-06
3.85991e-06
2.22371e-06
1.30267e-06
4.382e-06
9.59376e-06
4.42323e-06
1.81283e-06
1.08873e-05
4.9314e-06
4.54503e-06
1.61681e-06
3.52502e-06
4.54728e-06
1.18113e-06
2.03171e-06
4.46154e-06
1.05516e-05
1.11563e-05
1.0747e-06
1.11988e-05
1.11739e-05
5.83474e-06
1.23252e-06
1.24527e-06
1.25873e-06
1.23356e-06
9.69396e-07
9.49048e-07
9.58843e-07
9.49008e-07
4.58353e-06
2.68459e-06
1.09757e-05
2.9674e-06
4.83775e-06
2.83545e-06
2.86576e-06
2.89574e-06
4.1146e-06
6.17904e-07
4.27365e-06
4.81878e-06
1.08979e-05
4.61464e-06
1.12022e-05
1.00411e-05
1.03858e-05
1.39252e-06
1.39382e-06
1.40806e-06
1.42337e-06
1.11814e-05
3.02849e-06
1.06931e-05
1.08682e-05
3.60534e-06
7.72789e-07
7.37633e-07
7.39852e-07
7.55517e-07
7.47182e-07
5.28904e-06
3.38603e-06
1.78787e-06
2.05644e-06
4.36312e-06
1.2942e-06
1.08293e-05
1.36587e-06
7.85028e-06
7.68688e-06
2.48189e-06
8.78796e-06
1.86057e-06
2.08732e-06
1.11694e-05
2.61017e-06
8.70527e-06
1.99906e-06
2.49534e-06
2.52188e-06
2.54838e-06
2.50244e-06
4.97113e-06
1.11596e-05
9.69594e-06
2.67984e-06
5.51104e-06
4.30918e-06
1.11802e-05
1.09326e-05
3.01783e-06
3.8438e-06
4.20785e-06
9.00348e-07
9.02314e-07
9.11296e-07
9.21316e-07
7.62762e-06
7.79023e-06
7.85527e-07
8.10367e-07
8.32477e-07
8.7944e-06
7.61743e-07
4.81045e-06
9.42513e-07
6.34765e-06
1.70072e-06
4.49285e-06
4.19305e-06
2.13082e-06
4.64888e-06
3.3587e-06
4.70181e-06
1.11597e-05
4.7246e-06
1.11649e-05
8.09652e-06
1.88823e-06
4.48811e-06
7.16369e-06
1.06109e-05
4.75559e-06
2.13436e-06
1.13894e-06
1.79977e-06
2.72113e-06
1.50247e-06
1.21632e-06
6.71962e-06
8.79071e-06
1.80918e-06
1.11949e-05
9.57642e-06
4.60138e-06
2.25271e-06
1.45645e-06
5.11075e-06
1.0891e-05
9.68713e-07
4.53332e-06
4.98774e-06
7.32276e-07
1.1153e-05
5.31944e-06
4.63705e-06
1.09046e-05
8.01001e-06
5.15801e-06
1.1175e-05
4.31623e-06
1.01896e-05
1.54699e-06
4.44572e-06
6.86671e-06
9.45893e-07
9.35669e-07
9.26184e-07
9.26504e-07
1.11411e-05
2.93167e-06
3.00392e-06
6.47308e-07
6.33356e-07
6.40616e-07
6.65356e-07
6.39671e-07
1.08684e-05
1.08249e-05
4.83739e-06
4.77923e-06
4.98464e-06
1.20232e-06
5.66002e-06
1.1118e-05
4.67705e-06
4.87099e-06
3.52804e-06
3.49177e-06
3.45454e-06
1.45675e-06
3.24845e-06
2.55114e-06
5.46054e-06
7.50035e-06
2.32457e-06
2.34103e-06
1.1002e-05
1.07494e-05
4.7926e-06
4.66441e-06
1.10328e-05
4.85504e-06
1.45129e-06
6.50995e-06
6.55059e-06
1.11797e-05
2.46995e-06
4.78584e-06
1.0792e-05
2.43707e-06
1.39801e-06
1.63399e-06
1.28736e-06
1.28678e-06
1.30007e-06
1.31417e-06
2.64607e-06
2.58217e-06
5.08279e-06
7.67995e-06
1.64204e-06
1.65802e-06
1.64103e-06
1.67584e-06
6.20493e-06
2.71181e-06
3.00287e-06
3.03498e-06
3.06672e-06
1.06052e-05
5.17817e-06
1.11788e-05
9.79326e-07
3.06299e-06
6.24335e-06
2.46086e-06
5.33317e-06
1.11417e-05
5.98985e-06
1.02546e-06
1.05139e-06
1.07001e-05
1.07855e-05
2.8964e-06
3.32372e-06
1.09428e-05
5.01022e-06
1.13421e-05
5.04106e-06
5.14484e-06
2.00923e-06
8.44737e-06
8.54777e-06
9.18828e-06
5.09035e-06
5.03826e-06
4.98442e-06
2.8431e-06
2.67034e-06
2.95001e-06
3.75096e-06
3.71217e-06
3.67296e-06
5.89216e-06
1.08263e-05
5.69137e-06
2.14264e-06
1.06903e-07
1.0442e-07
9.6349e-08
1.03398e-07
1.04101e-07
1.00272e-07
1.00963e-07
9.93686e-08
9.8913e-08
9.8116e-08
5.26392e-06
5.21002e-06
5.1544e-06
1.09859e-05
1.33103e-06
1.07035e-05
3.08339e-06
2.14961e-06
1.08405e-05
2.05727e-06
1.03826e-05
8.32571e-06
3.57747e-06
3.50306e-06
3.54056e-06
7.62353e-06
1.06689e-05
1.61934e-06
1.08914e-05
1.11796e-05
5.51816e-06
3.47456e-06
8.89715e-07
1.10026e-05
6.33684e-06
3.96567e-06
3.25162e-06
5.49111e-06
5.32701e-06
1.05534e-05
1.06193e-05
1.10688e-05
1.11766e-05
5.50791e-06
1.09872e-05
1.07936e-05
1.11163e-05
2.11056e-06
2.25183e-06
5.34727e-06
2.14292e-06
1.09677e-05
3.22941e-06
3.19603e-06
3.16223e-06
4.10216e-06
4.05995e-06
4.01683e-06
1.07143e-05
1.12057e-05
1.19779e-06
4.36892e-06
2.51279e-06
3.13049e-06
3.03068e-06
2.50218e-06
2.64797e-06
6.41583e-06
4.40972e-06
1.11373e-05
3.8046e-06
3.38374e-06
1.0276e-05
3.26151e-06
1.10889e-05
2.66613e-06
7.33022e-06
1.84093e-06
1.11806e-05
5.82334e-06
2.24671e-06
2.27043e-06
2.29445e-06
7.71437e-06
3.63014e-06
4.43811e-06
6.53897e-06
2.94706e-06
2.97854e-06
3.00967e-06
2.12447e-06
5.80186e-06
3.16693e-06
4.27823e-06
4.23428e-06
4.18921e-06
8.92507e-06
7.35016e-06
3.07151e-06
1.04686e-05
3.61852e-06
6.1948e-07
5.86386e-06
5.03364e-06
6.67353e-06
4.05687e-06
4.01521e-06
3.97245e-06
2.6282e-06
4.10103e-06
3.06514e-06
2.36912e-06
5.69018e-06
3.10361e-06
1.08719e-05
9.81064e-06
1.08054e-05
3.79425e-06
6.01871e-06
4.14116e-06
1.02654e-05
1.75035e-06
1.10405e-05
1.69978e-06
8.44894e-06
2.72672e-06
7.62818e-06
7.71131e-06
7.551e-06
1.04987e-05
1.11704e-05
8.92563e-06
3.78853e-06
2.63438e-06
2.60661e-06
2.662e-06
6.16064e-06
1.11245e-05
1.06449e-05
3.84287e-06
3.56692e-06
3.1994e-06
2.35703e-06
3.48945e-06
1.0857e-05
6.43979e-07
6.81716e-07
6.64645e-07
6.40691e-07
5.65007e-06
1.78594e-06
2.90501e-06
6.20231e-06
2.73523e-06
5.43733e-06
5.38161e-06
5.32424e-06
3.61106e-06
1.07773e-05
3.26451e-06
3.30735e-06
6.70523e-06
6.0356e-06
2.77684e-06
2.80647e-06
2.83584e-06
2.68477e-06
1.12232e-05
1.3151e-06
2.91288e-06
3.50134e-06
1.0836e-05
3.43997e-06
7.50642e-06
1.11307e-05
1.07768e-05
2.72704e-06
1.08531e-05
7.23728e-06
6.5066e-06
1.38154e-06
1.34353e-06
1.75108e-06
7.57713e-06
1.11794e-05
3.88478e-06
3.80393e-06
3.84484e-06
4.39638e-06
4.30488e-06
4.35132e-06
3.30264e-06
1.08025e-05
3.60097e-06
3.60958e-06
5.093e-06
2.79782e-06
2.33394e-06
2.87627e-06
1.77258e-06
1.75424e-06
1.79147e-06
3.04637e-06
1.12049e-05
3.61466e-06
6.37866e-06
1.08755e-05
3.12359e-06
7.43259e-06
3.70349e-06
2.5478e-06
2.70045e-06
2.61581e-06
1.44259e-06
6.53499e-06
5.39135e-06
6.5905e-06
7.89261e-06
9.46182e-06
3.8485e-06
6.50988e-06
1.10043e-05
6.36799e-06
7.42552e-06
5.27089e-06
4.02005e-06
6.83708e-06
5.62959e-06
1.11873e-05
3.31021e-06
1.06068e-05
3.28327e-06
9.48475e-06
3.26453e-06
1.75652e-06
1.11932e-05
7.5936e-06
1.10115e-05
8.43139e-06
3.28343e-06
2.7651e-06
5.01921e-06
5.49421e-06
5.43783e-06
5.37998e-06
8.96555e-06
6.75942e-06
1.0588e-05
1.14166e-05
2.40754e-06
5.571e-06
3.4278e-06
4.73566e-06
9.35979e-07
3.24372e-06
4.9615e-06
1.05329e-05
6.7032e-06
9.80435e-06
1.11753e-05
1.08805e-06
2.87307e-06
1.08037e-05
1.80072e-06
1.07201e-05
4.56931e-06
4.52251e-06
4.47423e-06
4.71283e-06
3.61345e-06
6.3204e-06
3.49754e-06
1.09096e-05
3.8851e-06
9.32888e-06
1.51533e-06
6.16734e-06
7.92581e-06
9.11466e-06
6.0254e-06
5.96383e-06
5.9001e-06
3.92423e-06
5.808e-06
5.67079e-06
5.61263e-06
5.55287e-06
7.95614e-06
4.06357e-06
5.1962e-06
6.36703e-06
2.43595e-06
2.46183e-06
2.48771e-06
1.08467e-05
1.09828e-05
6.11763e-06
1.08331e-05
8.07038e-06
7.90282e-06
5.93086e-06
2.07882e-06
5.97986e-06
5.91903e-06
5.85535e-06
5.79426e-06
5.73512e-06
5.67364e-06
6.90321e-06
2.44322e-06
4.09649e-06
1.1022e-05
9.24712e-06
1.10989e-05
1.10948e-05
7.76426e-06
6.87664e-06
1.81265e-06
1.81322e-06
7.04687e-06
1.11765e-05
5.26922e-06
5.14574e-06
5.09292e-06
5.03871e-06
9.05601e-06
8.14263e-06
1.03163e-05
5.49222e-06
1.55542e-06
8.73685e-06
4.66661e-06
2.88633e-06
1.04364e-05
2.09751e-06
2.07572e-06
2.11981e-06
1.10881e-05
2.75894e-06
2.78836e-06
2.81761e-06
3.69189e-06
2.52793e-06
1.47003e-06
2.94295e-06
1.08379e-05
5.01781e-06
3.53236e-06
2.22965e-06
1.93842e-06
7.22624e-06
6.38035e-07
6.24365e-07
6.17466e-07
6.1165e-07
6.09031e-07
1.05988e-05
1.43528e-06
4.96004e-06
6.65463e-06
1.08029e-05
4.10692e-06
6.50565e-06
6.43997e-06
6.37021e-06
7.92698e-06
1.05757e-05
1.0594e-05
6.48394e-06
8.91552e-06
5.95441e-06
6.33088e-06
6.26659e-06
6.19916e-06
8.98915e-06
4.32258e-06
6.34782e-06
8.15645e-06
6.19971e-06
6.20128e-06
6.138e-06
6.07232e-06
4.70972e-07
5.72375e-06
3.2796e-06
1.1176e-05
2.05143e-06
4.14085e-06
2.23836e-06
2.10138e-06
1.11667e-05
7.10646e-06
4.06377e-06
5.55092e-06
1.69759e-06
3.1736e-06
3.20749e-06
3.24103e-06
2.42396e-06
8.33434e-06
1.11874e-05
1.73492e-06
5.72128e-06
8.02372e-06
2.07207e-06
5.48605e-06
2.52865e-06
5.60597e-06
5.97441e-06
9.41945e-06
3.50172e-06
7.02177e-06
2.41721e-06
2.44282e-06
2.46859e-06
1.10352e-05
1.11114e-05
1.63946e-06
1.11572e-05
1.11072e-05
5.55477e-06
3.86563e-06
1.11768e-05
5.21376e-06
2.29633e-06
1.11777e-05
9.63492e-06
1.09567e-05
5.31624e-06
2.49905e-06
1.76295e-06
1.11665e-05
1.13434e-05
2.85736e-06
8.63944e-06
1.0954e-05
1.21135e-06
1.58407e-06
1.58249e-06
1.59891e-06
1.61606e-06
9.41323e-06
2.92327e-06
1.10971e-05
1.06902e-05
6.41079e-06
9.75275e-06
2.15633e-06
3.1893e-06
2.17065e-06
6.06488e-06
6.2298e-06
1.87469e-06
1.37893e-06
1.27918e-06
5.68255e-06
9.22674e-06
4.20035e-06
7.49808e-06
9.31379e-06
5.87113e-06
6.23965e-06
6.02154e-06
3.24805e-06
2.15496e-06
1.11454e-05
2.27138e-06
1.24496e-06
1.24545e-06
1.25815e-06
1.27185e-06
8.21365e-06
3.27805e-06
1.96187e-06
8.76339e-06
1.90591e-06
6.26736e-06
1.06741e-05
3.14461e-06
8.10746e-06
4.62597e-06
4.52971e-06
4.57855e-06
6.7104e-06
8.58383e-06
1.07664e-05
5.84404e-06
6.21682e-06
6.55571e-06
6.48958e-06
6.41941e-06
2.51012e-06
2.67318e-06
6.77249e-06
1.08245e-05
6.01466e-06
7.3489e-06
7.43667e-06
7.28228e-06
5.3288e-06
1.06598e-05
5.83999e-06
9.42835e-06
1.10683e-05
1.12321e-05
2.26535e-06
2.28935e-06
2.31348e-06
9.99976e-06
1.82976e-06
1.81088e-06
1.84932e-06
1.81327e-06
6.59072e-06
7.96129e-06
6.73336e-06
1.11603e-05
9.86474e-06
1.22106e-06
1.23606e-06
1.24964e-06
1.22374e-06
8.19596e-07
8.01865e-07
7.92847e-07
7.85203e-07
7.81592e-07
2.35158e-06
9.18108e-06
6.95346e-06
1.11513e-05
9.30682e-06
9.33341e-06
7.00339e-06
1.11827e-05
2.31018e-06
1.11883e-05
6.86466e-06
6.79642e-06
6.72166e-06
1.11214e-05
6.54576e-06
6.55246e-06
8.24406e-06
4.49795e-06
1.1113e-05
1.12602e-05
2.09684e-06
2.11898e-06
2.14139e-06
1.03859e-05
1.08681e-05
5.07026e-06
6.3702e-06
6.76309e-06
2.85691e-06
1.11146e-05
1.11642e-05
2.17019e-06
1.10705e-06
1.11824e-05
6.07419e-06
7.51931e-06
7.62758e-06
6.03104e-06
2.97042e-06
1.56491e-06
1.56485e-06
1.581e-06
1.59806e-06
1.11782e-05
8.59488e-06
1.90831e-06
7.53892e-06
7.1011e-06
1.44707e-06
2.01195e-06
1.11153e-05
1.92644e-06
1.9065e-06
1.94699e-06
1.11768e-05
9.18088e-06
2.78765e-06
2.66466e-06
2.69308e-06
2.72131e-06
1.98862e-06
6.5054e-06
4.9154e-06
4.86507e-06
4.81309e-06
9.02237e-06
7.09303e-06
9.23046e-06
7.90357e-06
1.08599e-05
3.18015e-06
8.62605e-06
7.04168e-06
8.8043e-06
6.88146e-06
2.0372e-06
1.533e-06
5.37526e-06
7.30783e-06
1.11555e-05
1.11277e-05
1.11711e-05
1.10132e-05
2.05708e-06
1.00032e-05
8.39082e-06
1.08891e-05
1.09349e-05
1.41175e-06
1.42626e-06
1.44169e-06
1.41237e-06
1.11835e-05
7.8561e-06
9.09678e-06
6.94011e-06
7.55495e-07
2.54314e-06
2.11546e-06
8.27018e-06
1.09232e-05
1.87496e-06
7.27855e-06
8.89908e-06
8.51436e-06
1.11481e-05
3.79729e-06
1.06987e-05
1.08489e-05
8.69348e-06
1.09394e-05
1.65135e-06
1.63508e-06
1.11932e-05
2.43038e-06
8.01234e-06
7.84559e-06
2.32968e-06
2.32378e-06
2.3484e-06
2.37316e-06
1.08248e-05
1.08739e-05
1.97811e-06
1.10196e-05
3.70873e-06
3.63151e-06
3.6706e-06
2.82587e-06
1.68223e-06
2.75682e-06
1.113e-05
7.2756e-06
1.05676e-05
1.71801e-06
9.45131e-06
1.62739e-06
1.11853e-05
7.84161e-06
1.79078e-06
7.98982e-06
7.82409e-06
7.95304e-06
2.16851e-06
1.03965e-05
1.07244e-05
2.28899e-06
7.41787e-06
1.48834e-06
7.80022e-06
1.0783e-05
8.74816e-06
1.1139e-05
1.08556e-05
1.00925e-05
1.07124e-05
5.20994e-06
1.11675e-05
1.10899e-05
4.22367e-06
4.18032e-06
4.13578e-06
2.29169e-06
7.59919e-06
1.11929e-05
1.11919e-05
6.92326e-06
1.08709e-05
9.96488e-06
1.11956e-05
1.07081e-05
1.07677e-05
9.32638e-06
8.39125e-06
7.51751e-06
1.06125e-05
1.00549e-05
7.30156e-06
7.37386e-06
7.22068e-06
1.10792e-05
7.86266e-06
2.07301e-06
1.11318e-05
1.59049e-06
8.76662e-06
7.28711e-06
7.77044e-06
1.12437e-05
5.60965e-06
5.55217e-06
5.49297e-06
7.35304e-06
1.04961e-06
8.49275e-06
8.3188e-06
2.40574e-06
7.41471e-06
7.6757e-06
1.11875e-05
1.09039e-05
1.09342e-05
1.05737e-05
1.10382e-05
8.99203e-07
1.08301e-05
5.74793e-06
1.12115e-05
7.47563e-06
7.63459e-06
1.08443e-05
7.93394e-06
1.01794e-05
1.11903e-05
8.94052e-06
1.11899e-05
1.08823e-05
1.10949e-05
1.3731e-06
7.93838e-06
9.36669e-06
1.11934e-05
1.10721e-05
6.56523e-06
6.30569e-06
8.79424e-06
1.12296e-05
7.55303e-06
6.15697e-06
6.0944e-06
6.0288e-06
1.05507e-05
1.42871e-06
1.39898e-06
1.41348e-06
1.40058e-06
1.1195e-05
6.66104e-06
1.11921e-05
1.08898e-05
6.93738e-06
1.05764e-05
1.32504e-06
1.06027e-05
1.28772e-06
2.17483e-06
1.24498e-06
1.08634e-05
7.4617e-06
7.53843e-06
7.38178e-06
1.09165e-05
9.63825e-06
1.03869e-05
1.12364e-05
1.11726e-05
1.01694e-05
1.11066e-05
1.03252e-05
7.31682e-06
2.25628e-06
1.04702e-05
1.11925e-05
1.07742e-05
8.42842e-06
8.25572e-06
1.07302e-05
1.10588e-05
1.04135e-05
1.11813e-05
3.42468e-06
1.1201e-05
1.0503e-05
3.74788e-06
1.05037e-05
1.11692e-05
8.03151e-06
8.51329e-06
7.62934e-06
7.47085e-06
7.54031e-06
1.10823e-05
8.84875e-06
1.08848e-05
8.53656e-06
8.81226e-07
1.12537e-05
1.46825e-06
1.48321e-06
1.49934e-06
1.46709e-06
1.93037e-06
8.138e-06
1.03387e-05
1.95484e-06
1.11829e-05
7.63869e-06
1.07155e-05
1.1153e-05
7.61813e-06
9.26488e-07
9.24702e-07
9.34382e-07
9.44493e-07
8.16024e-06
7.99148e-06
9.30765e-06
8.45358e-06
8.57267e-06
1.12466e-06
1.11719e-05
1.1193e-05
1.11637e-05
1.11786e-05