/*--------------------------------*- C++ -*----------------------------------*\
  =========                 |
  \\      /  F ield         | OpenFOAM: The Open Source CFD Toolbox
   \\    /   O peration     | Website:  https://openfoam.org
    \\  /    A nd           | Version:  8
     \\/     M anipulation  |
\*---------------------------------------------------------------------------*/
FoamFile
{
    version     2.0;
    format      ascii;
    class       volScalarField;
    location    "5";
    object      p;
}
// * * * * * * * * * * * * * * * * * * * * * * * * * * * * * * * * * * * * * //

dimensions      [0 2 -2 0 0 0 0];

internalField   nonuniform List<scalar> 
4280
(
5.57697e-06
1.41865e-06
5.57265e-06
5.44563e-06
3.15107e-06
3.6672e-06
2.97029e-06
1.36716e-06
3.39866e-06
5.73893e-07
5.56454e-06
7.15235e-07
5.57069e-06
5.35844e-06
3.05696e-06
1.57799e-06
4.54888e-06
4.399e-06
5.02681e-06
1.42961e-06
5.55647e-06
8.81014e-07
5.52557e-06
2.23517e-06
2.31517e-06
7.18459e-07
9.58288e-07
2.60819e-06
1.85992e-06
4.34701e-06
3.08795e-06
4.40284e-07
3.69142e-06
3.56253e-06
5.50011e-06
1.72627e-06
3.49283e-06
4.51515e-06
6.63881e-07
3.47144e-06
5.21791e-06
4.30285e-06
5.01074e-06
2.03213e-06
6.25289e-07
4.5608e-06
4.49431e-06
1.68435e-06
2.50558e-06
3.66917e-06
3.65068e-06
1.6529e-06
1.87402e-06
5.09864e-06
5.36015e-06
1.50315e-06
4.94298e-06
3.17027e-06
2.7615e-06
1.6083e-06
1.72314e-06
1.2087e-06
4.18589e-06
3.5876e-06
2.68446e-06
1.21876e-06
4.98319e-06
5.23877e-06
1.5685e-06
1.45229e-06
9.13568e-07
2.06925e-06
1.03854e-06
3.40673e-06
5.29294e-06
5.01978e-06
2.73836e-06
4.26731e-07
1.80577e-06
4.90699e-06
6.39646e-07
1.05624e-06
5.56408e-06
1.75596e-06
3.07592e-06
4.93289e-06
7.34781e-07
8.49243e-07
4.85906e-06
1.35024e-07
1.2305e-06
4.77708e-06
3.11034e-07
6.96323e-07
4.11342e-06
1.52895e-06
3.68411e-06
1.64645e-06
2.92918e-06
1.94722e-06
3.54077e-06
4.1798e-06
2.36764e-06
2.57858e-06
1.53148e-06
3.60943e-06
3.73272e-06
3.98976e-06
2.25594e-06
5.1486e-06
5.075e-06
3.72551e-06
3.14809e-06
5.01146e-06
5.55921e-06
2.14774e-06
5.42975e-06
4.25363e-06
5.13271e-06
5.41162e-06
4.55623e-06
1.07081e-06
1.28424e-06
1.0598e-06
2.84416e-06
4.73006e-06
5.16207e-06
8.5862e-07
5.57108e-06
3.71483e-06
3.04565e-06
1.57673e-06
1.0453e-06
2.87495e-06
4.33751e-06
1.01416e-07
2.51772e-06
1.60496e-06
1.66953e-06
1.48018e-06
3.58809e-06
5.10902e-07
5.39567e-06
3.67777e-06
3.29507e-06
3.46144e-06
5.53398e-06
7.43395e-07
5.24881e-06
3.44329e-06
4.84753e-06
4.73672e-06
1.17672e-06
5.25585e-06
4.24226e-06
1.39882e-06
5.04765e-06
1.96018e-06
3.18259e-06
2.36151e-06
3.38824e-06
4.0257e-06
5.57426e-06
4.67575e-06
4.2679e-06
4.87141e-06
1.47842e-06
2.46767e-06
1.72924e-06
6.46413e-07
2.67479e-06
1.03792e-06
3.22135e-06
1.07921e-07
5.24402e-06
5.80317e-07
5.24292e-06
3.80028e-06
9.27648e-07
2.15772e-06
5.14978e-06
5.06689e-06
5.06617e-06
3.9106e-06
3.4497e-06
4.07555e-06
4.42027e-06
5.52337e-06
1.85355e-06
3.61276e-07
5.24116e-06
4.2386e-06
1.90969e-06
1.9126e-06
8.58694e-07
4.1813e-06
2.28351e-06
3.26443e-06
1.98488e-06
3.78682e-06
5.13718e-06
4.79987e-06
2.02322e-06
8.22433e-07
2.3158e-06
4.04817e-06
2.83849e-06
1.03521e-06
1.87411e-06
2.56539e-06
2.62646e-06
5.26729e-06
2.84046e-06
5.27294e-06
1.19348e-06
4.29654e-06
5.40878e-06
2.79193e-06
9.73443e-07
5.01532e-06
1.60745e-06
5.55675e-06
4.6293e-06
4.8908e-06
4.16977e-06
5.10551e-06
5.16963e-06
2.75667e-06
3.77343e-06
4.05833e-06
5.50879e-06
1.83253e-06
5.5903e-06
4.6336e-06
2.06247e-06
5.50829e-06
4.494e-06
3.0091e-06
4.85053e-06
9.11619e-07
1.29076e-06
3.82539e-06
3.62854e-06
4.82343e-06
1.47604e-06
9.13298e-07
9.63145e-07
1.39034e-06
1.24874e-06
1.14001e-06
4.12423e-06
2.51785e-06
3.95682e-06
7.8084e-07
5.49005e-07
1.64813e-06
5.34888e-06
2.29166e-06
5.3565e-06
4.2633e-06
4.28379e-06
5.50133e-06
5.15156e-06
7.68226e-07
5.1982e-06
2.54266e-06
3.4368e-06
3.33918e-06
3.60823e-06
4.87952e-06
1.79215e-07
2.37762e-06
1.63703e-06
2.41932e-06
2.74869e-06
1.71382e-06
5.23885e-06
1.37187e-06
2.63562e-06
5.36251e-06
2.77682e-06
4.06587e-06
1.52172e-06
5.52941e-06
2.36349e-06
5.55641e-06
3.84354e-06
1.46045e-06
2.23149e-06
9.59511e-07
6.75753e-07
4.71088e-07
3.50236e-07
3.93039e-06
3.53771e-06
4.64121e-06
4.09122e-07
4.41848e-06
1.25036e-06
2.99228e-06
4.46636e-06
5.67022e-06
3.65812e-06
5.4626e-06
8.09721e-07
1.13704e-06
5.54551e-06
5.53712e-06
3.78785e-06
6.4571e-07
1.98624e-06
5.53697e-06
1.79881e-06
4.54329e-06
4.68134e-06
5.82506e-07
5.54119e-06
4.89495e-06
1.06929e-06
1.06102e-06
4.93983e-06
5.25449e-06
5.02744e-08
2.51754e-06
6.26888e-07
5.31679e-06
4.95889e-07
5.01741e-06
1.74928e-06
2.39338e-06
5.47647e-06
7.81512e-07
3.90189e-06
4.94157e-06
3.99208e-06
5.81119e-07
1.68923e-06
3.3571e-06
3.88478e-06
1.78925e-06
5.49875e-06
1.77022e-06
4.29852e-06
2.71237e-06
7.39803e-07
1.86416e-06
4.66641e-06
5.13875e-06
8.23946e-07
2.61755e-06
4.78148e-06
4.96753e-06
4.68046e-06
6.12263e-07
5.49751e-06
4.32547e-06
3.46741e-06
4.90375e-06
1.35457e-06
2.69712e-06
5.54375e-06
4.7399e-06
4.49283e-06
2.13925e-06
2.49772e-06
3.80224e-06
3.11414e-06
4.38883e-06
2.66721e-06
3.65286e-06
7.64419e-07
2.8717e-06
1.43052e-06
5.26278e-06
3.36957e-06
4.13093e-06
2.85825e-06
5.55783e-06
4.94694e-07
4.16449e-06
5.54838e-06
4.77409e-06
5.56821e-06
4.87702e-06
5.5689e-07
3.5801e-06
4.95575e-06
5.17167e-07
4.49112e-06
5.18731e-06
4.61305e-06
5.79122e-07
4.83518e-06
5.32141e-06
3.73164e-06
2.94143e-06
9.01137e-07
5.46452e-06
5.36556e-06
3.14654e-06
4.36207e-06
1.56591e-06
8.54438e-07
9.05892e-07
2.94266e-06
4.54125e-06
3.45122e-06
2.38136e-06
1.1182e-06
3.95517e-06
1.69622e-06
5.56658e-06
3.92646e-06
2.59732e-06
1.92125e-06
5.52335e-07
5.54979e-06
2.1997e-06
4.37808e-06
5.01189e-06
5.74095e-07
4.88354e-06
2.63437e-06
4.63817e-06
2.61875e-06
3.87311e-06
2.86356e-06
4.14814e-06
3.78394e-06
3.97491e-06
1.71902e-06
3.60109e-06
4.89374e-06
4.40312e-06
5.51266e-06
5.31019e-06
5.45974e-06
1.64532e-06
5.28607e-06
5.26136e-06
3.39924e-06
2.07829e-06
4.86714e-06
1.96723e-07
2.00656e-06
4.25852e-06
5.21136e-06
4.65246e-06
5.11529e-06
4.57415e-06
5.32044e-06
5.17223e-06
3.94337e-06
4.68001e-06
3.62048e-07
4.82736e-06
4.2553e-06
4.56173e-06
5.09405e-06
5.40015e-06
4.2635e-06
6.1348e-06
4.83324e-06
5.57905e-06
1.1738e-06
4.29433e-06
4.56383e-06
4.10288e-06
4.69408e-06
3.50762e-07
6.37683e-07
5.06514e-06
5.14154e-06
6.03963e-07
3.27082e-07
5.12654e-06
2.01775e-06
4.26102e-06
1.85142e-06
3.74233e-06
6.6057e-06
5.09737e-06
3.34799e-06
2.06661e-06
1.41299e-06
6.56814e-07
3.55434e-06
5.47127e-06
4.80426e-06
5.36002e-06
3.36977e-06
4.91554e-06
5.19297e-06
7.81889e-07
5.57133e-06
4.75311e-06
4.17716e-06
4.01171e-06
1.75496e-06
3.84589e-06
3.68363e-06
5.36437e-06
4.45267e-06
5.14233e-06
4.65835e-06
4.10255e-06
2.539e-06
2.30204e-06
2.35854e-06
5.45337e-06
2.80667e-06
5.16454e-06
5.1523e-06
5.55047e-06
3.89311e-06
1.64917e-06
4.94736e-06
5.48268e-06
6.5704e-07
4.6841e-06
3.80747e-06
4.52776e-06
5.83869e-07
4.75373e-06
5.27085e-06
5.06476e-06
4.39585e-06
2.20773e-06
5.4571e-06
4.93491e-06
2.12925e-06
4.31656e-06
4.72766e-06
4.46357e-06
5.33981e-06
3.62205e-06
7.02542e-07
3.43024e-06
4.11088e-06
3.79365e-06
8.33723e-07
5.52897e-06
5.39912e-06
5.47869e-06
4.31242e-06
5.62268e-06
9.67945e-07
6.63025e-07
5.45486e-06
4.16033e-06
4.51666e-06
4.29704e-06
3.57791e-06
5.57034e-06
4.99246e-06
5.35705e-06
4.35431e-06
1.33251e-06
4.67894e-06
3.17929e-06
5.51599e-06
4.03724e-06
9.81869e-07
3.21282e-06
5.3973e-06
9.25025e-07
4.28481e-06
6.60085e-07
4.64606e-06
2.32913e-06
3.91151e-06
5.0305e-06
5.47863e-06
5.3776e-06
8.5262e-07
4.75123e-07
5.27249e-06
7.79876e-07
4.12779e-06
4.36935e-06
7.12228e-07
5.65508e-07
4.36716e-06
4.12396e-06
4.60313e-06
4.29078e-06
5.63265e-06
4.11617e-06
4.92191e-06
5.54506e-06
3.65694e-06
3.05753e-06
5.07404e-06
5.03069e-06
5.01498e-06
9.74444e-07
3.73219e-06
3.92923e-06
4.81515e-06
3.48528e-06
5.5177e-06
5.5277e-06
5.54539e-06
1.42482e-06
4.88455e-06
5.54068e-06
4.40229e-06
3.42587e-06
2.92249e-06
5.00378e-06
5.45252e-06
4.18496e-06
5.81532e-07
2.08372e-06
6.7078e-07
2.64863e-06
5.56155e-06
4.31033e-06
1.9521e-06
4.24371e-06
5.4953e-06
5.57188e-06
1.57003e-06
3.80442e-06
6.98302e-07
5.57519e-06
3.42613e-06
4.93404e-06
5.56643e-06
5.51879e-06
6.50727e-07
4.67692e-07
3.06201e-06
4.2965e-06
5.56739e-06
3.50363e-06
5.74031e-06
3.39876e-06
4.19818e-06
4.42788e-06
2.35784e-06
5.58038e-06
3.71347e-06
5.73814e-06
5.94334e-07
5.15595e-06
3.78933e-06
5.41624e-06
5.71195e-06
3.14407e-06
3.76444e-06
4.38013e-06
7.3807e-07
5.4985e-06
3.19172e-06
5.49389e-06
7.31132e-07
5.43135e-06
4.95142e-06
4.0167e-06
5.53589e-06
3.51349e-06
3.73014e-07
4.40645e-06
4.14185e-06
3.54884e-06
3.62519e-06
3.61955e-06
4.38895e-06
3.07997e-06
5.17404e-06
5.39842e-06
5.08607e-07
3.38787e-06
3.58664e-06
3.73205e-06
4.3117e-06
5.37265e-06
4.22178e-06
5.58414e-06
5.98798e-07
5.58562e-06
5.32143e-06
4.43975e-06
4.56732e-06
4.62852e-06
4.29493e-06
4.47886e-06
5.47592e-06
3.53538e-06
4.15906e-06
3.5552e-06
3.6347e-06
4.43871e-06
4.28878e-06
3.01848e-06
3.22496e-06
5.72494e-06
3.71306e-06
3.06982e-06
4.31822e-06
4.10152e-06
8.40438e-07
4.59726e-06
3.62411e-06
2.9157e-06
5.20883e-06
3.92861e-06
3.72591e-06
5.14245e-06
3.70582e-06
1.7128e-06
5.52882e-06
4.13566e-06
4.09604e-06
3.66734e-06
4.60359e-06
4.35555e-06
4.906e-06
3.82709e-06
5.55998e-06
4.35977e-06
3.85272e-06
5.38889e-06
3.60614e-06
5.72285e-06
5.67458e-06
5.56785e-06
3.67836e-06
5.57765e-06
3.6214e-06
9.16429e-07
7.49329e-07
8.14408e-07
4.23245e-06
5.56865e-06
4.18163e-06
2.9597e-06
5.56835e-06
3.81865e-06
5.55727e-06
3.09982e-06
5.53064e-06
5.55937e-06
3.80281e-06
4.0099e-06
5.25043e-06
3.73527e-06
3.14501e-06
3.5186e-06
5.57318e-06
5.51412e-06
3.64857e-06
4.08066e-06
3.30718e-06
3.53642e-06
2.98039e-06
3.21143e-06
4.07086e-06
3.25277e-06
8.27128e-07
5.50394e-06
5.00974e-06
3.67103e-06
4.09434e-06
3.46825e-06
3.83558e-06
3.5108e-06
3.40557e-06
5.40948e-06
6.3733e-07
3.51131e-06
4.24661e-06
5.56615e-06
5.60249e-06
3.59107e-06
3.77443e-06
4.98152e-06
3.28947e-06
5.62451e-07
9.2024e-07
4.05481e-06
5.56702e-06
4.04516e-06
3.98481e-06
3.63057e-06
5.58336e-06
4.42e-06
3.44849e-06
3.50262e-06
5.54276e-06
4.33948e-06
5.57455e-06
3.79921e-06
4.50782e-06
3.15857e-06
3.98748e-06
9.77403e-07
3.35412e-06
3.96075e-06
3.09574e-06
5.55927e-06
3.57328e-06
3.50032e-06
5.57076e-06
5.56128e-06
3.28788e-06
4.20575e-06
3.92161e-06
2.00528e-06
6.63367e-07
3.90782e-06
3.84639e-06
-1.11589e-07
3.58012e-06
3.44244e-06
5.54405e-06
5.57476e-06
1.89975e-06
5.46979e-06
3.44439e-06
3.95531e-06
4.00953e-06
3.47728e-06
4.17157e-06
2.43858e-06
3.8718e-06
5.55234e-06
4.12428e-06
5.57835e-06
3.90278e-06
4.06e-06
3.34667e-06
3.98543e-06
3.70118e-06
3.99948e-06
3.90791e-06
5.45102e-06
3.86685e-06
4.40704e-06
3.19756e-06
3.87558e-06
4.0897e-06
3.38967e-06
3.01929e-06
3.74203e-06
3.39525e-06
3.79336e-06
5.56971e-06
3.34755e-06
5.57269e-06
3.12148e-06
3.88312e-06
3.86532e-06
4.56524e-06
3.88426e-06
9.02948e-07
3.31381e-06
4.13156e-06
3.7863e-06
3.38038e-06
3.4089e-06
5.57136e-06
4.0102e-06
5.47394e-06
3.31377e-06
3.79717e-06
5.33751e-06
4.35489e-06
3.82719e-06
3.98071e-06
4.10686e-06
3.93499e-06
3.36222e-06
3.33454e-06
3.92286e-06
5.15949e-06
4.55305e-06
3.82794e-06
3.91447e-06
3.71332e-06
3.82107e-06
1.04931e-06
5.56902e-06
3.87193e-06
3.24951e-06
3.81879e-06
3.34567e-06
3.91592e-06
3.73809e-06
3.94123e-06
3.69489e-06
2.72803e-06
3.87724e-06
5.55005e-06
1.01344e-06
3.55075e-06
3.81061e-06
3.74573e-06
2.99913e-06
5.50281e-06
4.01879e-06
3.84422e-06
3.34908e-06
3.76606e-06
3.89425e-06
2.79653e-06
3.58221e-06
2.79088e-06
3.34513e-06
3.63418e-06
3.77008e-06
3.31617e-06
5.57393e-06
3.30307e-06
5.54922e-06
3.77433e-06
3.85253e-06
1.04146e-06
3.24092e-06
2.571e-06
3.75219e-06
3.25541e-06
3.66311e-06
9.78128e-07
3.28917e-06
2.58508e-06
3.38128e-06
3.73783e-06
3.54873e-06
5.55807e-06
2.65099e-06
3.78236e-06
3.2613e-06
2.7037e-06
2.63881e-06
3.65956e-06
3.73596e-06
3.69628e-06
3.80434e-06
5.27281e-06
3.16534e-06
3.82261e-06
3.55531e-06
3.69535e-06
3.61549e-06
3.65238e-06
3.35677e-06
3.18901e-06
3.64012e-06
2.8471e-06
3.28298e-06
3.73676e-06
3.18282e-06
3.11475e-06
3.47388e-06
5.57465e-06
3.60482e-06
3.23524e-06
3.58043e-06
3.14128e-06
3.05061e-06
3.22282e-06
3.47688e-06
3.72901e-06
1.09121e-06
3.53321e-06
3.59059e-06
3.30269e-06
3.51834e-06
3.49938e-06
3.03647e-06
3.50583e-06
2.83371e-06
3.66718e-06
3.53454e-06
2.64179e-06
2.97702e-06
3.93322e-06
2.93001e-06
3.7566e-06
2.94566e-06
2.36605e-06
3.67314e-06
3.22888e-06
3.05778e-06
3.64415e-06
3.46403e-06
3.39877e-06
3.06227e-06
1.85667e-06
2.95981e-06
3.41874e-06
2.99264e-06
3.57014e-06
2.93558e-06
3.48899e-06
3.00876e-06
3.3992e-06
4.93645e-06
2.90484e-06
2.97291e-06
2.77221e-06
1.11325e-06
3.47537e-06
3.59265e-06
2.83799e-06
3.62507e-06
3.43633e-06
3.3208e-06
3.60669e-06
3.37064e-06
3.27479e-06
3.42661e-06
2.839e-06
2.96759e-06
2.97554e-06
3.43234e-06
2.74757e-06
3.6145e-06
2.97615e-06
5.56488e-06
3.44414e-06
2.90174e-06
2.93083e-06
2.61098e-06
2.79978e-06
3.37224e-06
3.43718e-06
3.25172e-06
2.93521e-06
3.33718e-06
2.84268e-06
2.5546e-06
3.24498e-06
3.24277e-06
2.73777e-06
2.80032e-06
3.16379e-06
3.46204e-06
3.35157e-06
2.84225e-06
3.3994e-06
3.52266e-06
3.25223e-06
2.76022e-06
3.60459e-06
3.25489e-06
3.30723e-06
3.5073e-06
2.73967e-06
3.39177e-06
3.33128e-06
3.40907e-06
3.29877e-06
2.63019e-06
2.87019e-06
2.35942e-06
2.19541e-06
2.43576e-06
3.02117e-06
3.21765e-06
3.2757e-06
1.18729e-06
3.16481e-06
2.51177e-06
2.45685e-06
3.17304e-06
2.68295e-06
3.65771e-06
2.26731e-06
3.59393e-06
3.18143e-06
3.22214e-06
3.16959e-06
3.04291e-06
2.68613e-06
2.85315e-06
2.77126e-06
3.08669e-06
3.31681e-06
2.6919e-06
2.67342e-06
2.62139e-06
3.1199e-06
2.79691e-06
3.17424e-06
2.63943e-06
3.13103e-06
2.57922e-06
2.85612e-06
3.14506e-06
3.39475e-06
2.45217e-06
3.24879e-06
2.65938e-06
2.62672e-06
3.1432e-06
2.55272e-06
2.32836e-06
2.61123e-06
2.66484e-06
3.19878e-06
3.09195e-06
2.58937e-06
3.21936e-06
3.04099e-06
2.74562e-06
2.93264e-06
3.23114e-06
2.8243e-06
3.13477e-06
3.11395e-06
3.81601e-06
3.3089e-06
3.18904e-06
3.00716e-06
3.17432e-06
2.70144e-06
2.74987e-06
2.5877e-06
3.01191e-06
2.90259e-06
3.1918e-06
3.0475e-06
3.32198e-06
2.63192e-06
2.92519e-06
2.4963e-06
2.9042e-06
3.00914e-06
2.88508e-06
2.94099e-06
2.57185e-06
2.50046e-06
1.25469e-06
2.97222e-06
2.30474e-06
2.93717e-06
2.51964e-06
2.54892e-06
1.3243e-06
3.09499e-06
3.0768e-06
2.9713e-06
3.01485e-06
2.86514e-06
2.99505e-06
1.3483e-06
2.99734e-06
2.96105e-06
2.46467e-06
2.53695e-06
2.38025e-06
2.93531e-06
3.07101e-06
2.52375e-06
3.10434e-06
2.85403e-06
2.89274e-06
2.84167e-06
2.39116e-06
1.97127e-06
9.07232e-07
2.44569e-06
1.3089e-06
2.51507e-06
3.12261e-06
2.42627e-06
3.13197e-06
2.47795e-06
2.38347e-06
2.40994e-06
2.80932e-06
2.75707e-06
2.96594e-06
3.03375e-06
1.4092e-06
2.33517e-06
2.25813e-06
2.87345e-06
2.43717e-06
2.43377e-06
2.27558e-06
2.86094e-06
2.8814e-06
2.41314e-06
2.82995e-06
2.98124e-06
2.85359e-06
2.36725e-06
2.4469e-06
2.5927e-06
2.31281e-06
2.95874e-06
2.80174e-06
2.1028e-06
2.15183e-06
2.80308e-06
2.68339e-06
2.22433e-06
2.18076e-06
2.49171e-06
2.71097e-06
2.04672e-06
2.9095e-06
2.41227e-06
1.81372e-06
2.2502e-06
2.46194e-06
2.7742e-06
2.9272e-06
2.35991e-06
2.67387e-06
2.72244e-06
2.3849e-06
1.42026e-06
1.97704e-06
3.06106e-06
1.99946e-06
2.23672e-06
2.75735e-06
2.92073e-06
2.56976e-06
2.36953e-06
2.74936e-06
2.76326e-06
2.80031e-06
2.64106e-06
2.90141e-06
2.59886e-06
2.34074e-06
1.63333e-06
2.95613e-06
2.63918e-06
2.87511e-06
2.82628e-06
2.72382e-06
2.78367e-06
2.27522e-06
2.71938e-06
2.72247e-06
2.22963e-06
1.81169e-06
1.49e-06
1.86973e-06
2.7869e-06
2.19736e-06
2.69241e-06
2.63702e-06
1.69675e-06
2.71146e-06
2.87821e-06
2.15629e-06
2.15005e-06
2.60053e-06
2.53662e-06
2.05529e-06
2.64516e-06
2.67597e-06
2.55938e-06
2.55725e-06
1.76048e-06
2.15675e-06
2.30626e-06
2.10686e-06
2.56221e-06
2.64322e-06
2.09215e-06
2.11487e-06
2.05353e-06
2.48525e-06
1.57217e-06
2.56215e-06
2.47876e-06
2.10912e-06
2.62873e-06
2.02374e-06
1.74373e-06
2.01883e-06
2.43396e-06
2.87519e-06
2.8608e-06
2.48284e-06
2.07318e-06
1.8416e-06
2.49137e-06
1.94221e-06
2.64938e-06
2.46109e-06
2.25387e-06
1.66286e-06
2.54439e-06
2.12003e-06
2.4641e-06
1.96327e-06
1.96426e-06
1.72234e-06
2.40031e-06
2.22773e-06
1.56872e-06
1.58364e-06
2.03787e-06
2.51299e-06
2.60521e-06
1.98701e-06
2.55878e-06
2.16693e-06
1.89366e-06
2.62305e-06
2.48174e-06
2.52135e-06
1.63975e-06
1.60965e-06
2.00717e-06
2.29258e-06
2.02001e-06
2.77995e-06
2.04958e-06
2.46701e-06
1.93608e-06
1.99879e-06
1.55927e-06
2.40336e-06
2.53376e-06
2.36295e-06
1.50521e-06
2.32229e-06
2.21443e-06
2.53789e-06
2.14669e-06
2.26196e-06
2.3849e-06
2.40241e-06
1.86268e-06
2.32167e-06
2.47605e-06
2.62391e-06
1.87893e-06
2.32812e-06
1.90516e-06
2.44142e-06
2.44254e-06
2.42659e-06
1.62376e-06
1.91965e-06
2.39466e-06
2.43979e-06
1.64613e-06
1.78873e-06
2.07102e-06
2.0324e-06
2.17599e-06
2.24279e-06
1.85445e-06
2.41292e-06
2.35451e-06
1.18005e-06
2.552e-06
2.5452e-06
1.86094e-06
2.23327e-06
2.26072e-06
1.17718e-06
1.16452e-06
2.3239e-06
2.32628e-06
1.82107e-06
1.23409e-06
1.70306e-06
1.96398e-06
1.75438e-06
1.87641e-06
1.62124e-06
2.34289e-06
2.25866e-06
2.26196e-06
1.90467e-06
2.16415e-06
2.84342e-06
1.74924e-06
1.64859e-06
2.80838e-06
2.1718e-06
1.24262e-06
2.40192e-06
1.72604e-06
1.82314e-06
1.67407e-06
1.76863e-06
1.80008e-06
2.18636e-06
2.34527e-06
1.75559e-06
2.12808e-06
1.94772e-06
1.72247e-06
2.22491e-06
2.22044e-06
2.18431e-06
2.36398e-06
2.23473e-06
1.62833e-06
1.77726e-06
2.24432e-06
2.24429e-06
1.60075e-06
2.34061e-06
2.38902e-06
1.73375e-06
1.51003e-06
2.08674e-06
1.68961e-06
1.71623e-06
2.19658e-06
1.67113e-06
1.9098e-06
2.31172e-06
2.28563e-06
2.02486e-06
1.80869e-06
1.65303e-06
1.69239e-06
2.20773e-06
1.97577e-06
3.0457e-06
1.58474e-06
2.24268e-06
2.12173e-06
2.10518e-06
1.32263e-06
1.80607e-06
1.63269e-06
2.01239e-06
2.14544e-06
1.90907e-06
1.83071e-06
1.51264e-06
2.18504e-06
1.70932e-06
2.05139e-06
1.73227e-06
2.06001e-06
1.94696e-06
1.64764e-06
2.33549e-06
1.49603e-06
1.58065e-06
2.09532e-06
2.09626e-06
1.77863e-06
1.94223e-06
2.0226e-06
2.06636e-06
2.04993e-06
1.40725e-06
2.49438e-06
1.98348e-06
1.48753e-06
1.86612e-06
1.87137e-06
1.79983e-06
1.49407e-06
1.94609e-06
1.50165e-06
2.20573e-06
2.12894e-06
1.48001e-06
1.8434e-06
2.05289e-06
1.98662e-06
1.65951e-06
1.40182e-06
1.79366e-06
1.48618e-06
1.90808e-06
2.11521e-06
1.32211e-06
1.35368e-06
1.90448e-06
2.04467e-06
1.9208e-06
1.45344e-06
2.01195e-06
1.04725e-06
1.86687e-06
1.71673e-06
1.76764e-06
1.74359e-06
2.0501e-06
1.98156e-06
1.38144e-06
1.37986e-06
2.42878e-06
1.29856e-06
2.0219e-06
1.83538e-06
1.89784e-06
1.31308e-06
1.9173e-06
1.83451e-06
1.3113e-06
1.69496e-06
1.31438e-06
1.23252e-06
1.4432e-06
1.78627e-06
1.76658e-06
2.02497e-06
2.02153e-06
1.21179e-06
1.30997e-06
9.09436e-07
1.4002e-06
1.72289e-06
1.36904e-06
1.43256e-06
1.24192e-06
1.69777e-06
1.84991e-06
1.70513e-06
1.70653e-06
1.97497e-06
1.8763e-06
1.73001e-06
1.75496e-06
1.66155e-06
1.79338e-06
1.15438e-06
1.66803e-06
1.97608e-06
1.66879e-06
1.71309e-06
1.61632e-06
1.94992e-06
1.78213e-06
1.25349e-06
1.63507e-06
1.6667e-06
1.87588e-06
1.84154e-06
1.69732e-06
1.62897e-06
1.75436e-06
1.91099e-06
1.10634e-06
1.1455e-06
1.67175e-06
1.5342e-06
1.36357e-06
1.06337e-06
1.08483e-06
1.13665e-06
1.07757e-06
1.67925e-06
1.87696e-06
1.58031e-06
1.59897e-06
9.82899e-07
1.23168e-06
1.46907e-06
1.13769e-06
1.94302e-06
2.11823e-06
2.22914e-06
1.44999e-06
1.63559e-06
1.5512e-06
1.03283e-06
1.4046e-06
1.05354e-06
1.65417e-06
1.64834e-06
1.0362e-06
1.508e-06
1.40382e-06
1.30467e-06
1.0568e-06
1.12427e-06
9.82943e-07
1.5378e-06
9.26061e-07
1.69547e-06
1.47225e-06
1.31338e-06
1.62084e-06
1.42015e-06
1.28706e-06
9.8705e-07
1.46667e-06
1.76914e-06
1.36558e-06
1.20273e-06
1.29551e-06
1.58417e-06
1.50101e-06
1.552e-06
1.20581e-06
1.41334e-06
1.74629e-06
1.36792e-06
1.36417e-06
9.91606e-07
9.79362e-07
1.4469e-06
1.28305e-06
1.39265e-06
1.3077e-06
1.18486e-06
9.1026e-07
1.63184e-06
1.30002e-06
1.55308e-06
1.29839e-06
1.3172e-06
1.44767e-06
1.26554e-06
1.4006e-06
8.58688e-07
1.42619e-06
1.70852e-06
1.54529e-06
1.31232e-06
1.4567e-06
1.22792e-06
1.4722e-06
1.25501e-06
1.28099e-06
1.34447e-06
1.22816e-06
1.23107e-06
1.34624e-06
1.17593e-06
1.21539e-06
1.13869e-06
1.09946e-06
1.22611e-06
1.05368e-06
1.14304e-06
1.14287e-06
1.15126e-06
1.27926e-06
1.71973e-06
1.01286e-06
1.02532e-06
1.22203e-06
1.27483e-06
1.06235e-06
1.20619e-06
1.14134e-06
9.38017e-07
1.11227e-06
1.06488e-06
1.30273e-06
1.51024e-06
1.0759e-06
9.79993e-07
9.54845e-07
1.14789e-06
1.03313e-06
1.05073e-06
1.05152e-06
1.23951e-06
9.81373e-07
1.20063e-06
1.05953e-06
9.54776e-07
9.16204e-07
9.84768e-07
1.13326e-06
1.02749e-06
1.14006e-06
8.76392e-07
1.09106e-06
9.83411e-07
9.45776e-07
9.9914e-07
8.90348e-07
1.12657e-06
1.01117e-06
8.82394e-07
9.34022e-07
1.10494e-06
4.22614e-06
3.95322e-06
2.02937e-06
2.89309e-06
9.32564e-07
4.166e-06
4.04505e-06
2.9204e-06
4.27353e-06
1.25509e-06
3.10171e-06
1.98188e-06
3.77442e-06
1.17543e-06
4.00328e-06
8.58383e-07
3.68696e-06
3.90859e-06
1.8463e-06
3.53962e-06
1.27485e-06
3.61677e-06
4.09453e-06
3.27114e-06
2.57273e-06
4.11706e-06
3.22976e-06
3.05082e-06
3.35276e-06
1.15228e-06
3.19789e-06
1.1383e-06
3.27323e-06
1.08746e-06
7.13334e-07
1.20133e-06
4.01351e-06
3.60088e-06
2.91836e-06
1.40197e-06
3.69163e-06
3.11972e-06
2.86308e-06
3.19565e-06
2.96971e-06
2.21633e-06
3.91946e-06
1.05288e-06
2.26066e-06
7.88227e-07
1.30698e-06
3.42856e-06
1.25414e-06
2.95687e-06
1.7058e-06
6.85978e-07
1.04929e-06
2.45293e-06
2.10234e-06
2.76472e-06
6.87484e-07
2.80875e-06
3.85031e-07
1.91743e-06
4.98624e-07
9.67911e-07
3.31975e-06
5.88255e-07
3.63831e-06
2.11988e-06
1.00684e-06
3.37815e-06
2.19519e-06
3.14658e-06
3.44525e-06
3.23117e-06
3.33618e-06
3.86292e-06
1.82331e-06
5.18181e-07
4.48074e-07
3.32562e-06
7.82558e-07
3.51423e-06
1.58899e-06
2.99257e-06
8.56346e-07
9.78466e-07
2.78211e-06
1.96372e-06
2.02913e-06
6.21464e-07
3.06089e-06
1.61581e-06
2.83971e-06
2.3384e-06
1.13481e-06
2.01884e-06
2.7162e-06
5.99938e-07
2.94721e-06
3.11223e-06
2.74923e-06
2.78981e-06
3.44306e-06
2.78584e-06
6.53489e-07
3.16918e-06
3.04187e-06
7.6841e-07
8.9178e-07
4.05335e-06
3.38932e-06
1.12655e-06
3.34563e-06
1.14724e-06
3.13007e-06
3.16346e-06
1.21801e-06
9.08223e-07
8.42137e-07
1.12647e-06
1.15084e-06
1.38575e-06
1.07411e-06
1.44096e-06
1.31468e-06
1.09305e-06
1.3834e-06
1.19465e-06
1.28954e-06
8.73795e-07
1.01012e-06
1.07415e-06
1.17141e-06
1.58027e-06
1.45983e-06
1.32736e-06
2.21337e-06
1.08826e-06
1.16351e-06
1.43561e-06
1.08627e-06
9.50675e-07
1.33601e-06
1.50275e-06
1.15698e-06
1.11775e-06
1.30523e-06
1.22672e-06
1.54913e-06
1.21376e-06
2.13453e-06
1.83792e-06
1.3906e-06
1.26528e-06
1.86212e-06
1.25465e-06
2.00485e-06
1.35801e-06
1.17146e-06
1.21258e-06
1.83631e-06
1.19614e-06
1.31199e-06
2.72427e-06
1.42259e-06
1.21783e-06
2.16126e-06
1.11798e-06
2.00316e-06
2.78749e-06
1.80197e-06
1.64889e-06
1.5062e-06
1.86646e-06
1.75404e-06
1.36781e-06
1.92624e-06
1.69283e-06
1.91496e-06
1.54362e-06
1.39995e-06
1.56878e-06
1.56398e-06
1.33019e-06
1.55944e-06
1.68241e-06
1.60975e-06
1.74026e-06
1.27914e-06
1.48329e-06
1.67242e-06
1.58682e-06
2.26262e-06
1.31007e-06
1.34507e-06
2.28493e-06
2.6026e-06
1.57971e-06
1.34076e-06
2.14684e-06
2.89705e-06
2.26102e-06
1.56141e-06
1.50691e-06
1.55614e-06
1.80083e-06
1.50566e-06
2.09676e-06
1.38157e-06
1.75305e-06
1.59359e-06
3.26819e-06
1.47506e-06
2.62618e-06
1.60554e-06
1.50778e-06
2.1603e-06
2.53183e-06
1.8192e-06
1.94277e-06
1.52684e-06
2.01641e-06
2.30699e-06
2.88959e-06
1.83688e-06
2.33574e-06
2.50494e-06
2.72051e-06
2.04456e-06
1.92715e-06
2.54451e-06
2.52096e-06
2.20614e-06
1.97242e-06
2.41404e-06
1.80418e-06
2.1581e-06
2.66741e-06
2.06798e-06
1.95259e-06
2.85532e-06
2.39052e-06
2.51606e-06
2.75753e-06
2.4241e-06
1.89682e-06
2.42903e-06
2.30105e-06
2.34833e-06
3.0355e-06
1.95253e-06
2.67291e-06
2.49092e-06
4.50161e-06
2.0635e-06
2.08149e-06
2.40871e-06
2.13856e-06
2.58794e-06
1.97761e-06
2.97307e-06
1.97932e-06
2.19808e-06
2.51215e-06
2.32781e-06
2.59787e-06
1.89847e-06
2.51721e-06
2.44993e-06
2.41518e-06
2.18748e-06
1.82594e-06
2.08245e-06
2.70805e-06
3.14773e-06
2.668e-06
2.80608e-06
2.70514e-06
2.22741e-06
2.18049e-06
1.89989e-06
2.06408e-06
1.85877e-06
2.66447e-06
3.06976e-06
2.5954e-06
3.2895e-06
2.12596e-06
2.52753e-06
2.54927e-06
2.71831e-06
3.03327e-06
2.18721e-06
3.11265e-06
2.29294e-06
2.67453e-06
3.01982e-06
2.73388e-06
2.36279e-06
3.09412e-06
2.39783e-06
3.23889e-06
2.68161e-06
2.25484e-06
3.08083e-06
2.25478e-06
2.48423e-06
2.13284e-06
3.12332e-06
3.41826e-06
3.01434e-06
2.30823e-06
2.0907e-06
3.3577e-06
2.74567e-06
2.22265e-06
3.90922e-06
2.36773e-06
2.23779e-06
3.15831e-06
3.4002e-06
3.04472e-06
2.766e-06
2.30717e-06
2.62783e-06
2.56811e-06
3.45616e-06
3.11883e-06
2.50156e-06
2.67167e-06
2.31479e-06
3.05035e-06
2.85764e-06
2.48129e-06
2.98276e-06
2.57022e-06
2.41319e-06
2.99959e-06
3.01472e-06
2.62369e-06
1.14517e-06
3.26417e-06
3.057e-06
2.28543e-06
2.91384e-06
2.94681e-06
3.04967e-06
2.37301e-06
2.90189e-06
2.76494e-06
3.29027e-06
3.31966e-06
2.96054e-06
2.31201e-06
2.74351e-06
1.00465e-06
9.39973e-07
2.74328e-06
1.18685e-06
2.91894e-06
2.35723e-06
3.29459e-06
2.78562e-06
2.50578e-06
2.91773e-06
2.60425e-06
2.97424e-06
3.49401e-06
2.33692e-06
3.20609e-06
3.01804e-06
2.87798e-06
2.98768e-06
3.4288e-06
9.05161e-07
2.57174e-06
2.99503e-06
2.93842e-06
3.29514e-06
1.56368e-06
2.90891e-06
3.09569e-06
3.25591e-06
3.19585e-06
3.48219e-06
3.34566e-06
3.02983e-06
2.66279e-06
2.85382e-06
3.13345e-06
9.53306e-07
2.70527e-06
3.23416e-06
2.68457e-06
3.02463e-06
2.53353e-06
3.58092e-06
9.74258e-07
2.80996e-06
3.32426e-06
4.23139e-06
2.82832e-06
1.64469e-06
5.99736e-07
3.06528e-06
3.1046e-06
2.72415e-06
2.99837e-06
1.05283e-06
7.56814e-07
1.0186e-06
9.97131e-07
6.51861e-07
3.56e-06
3.04497e-06
3.09439e-06
2.74217e-06
3.37601e-06
8.43046e-07
1.12331e-06
3.08644e-06
3.54503e-06
8.26866e-07
3.5367e-06
1.32959e-06
3.41927e-06
5.53556e-06
3.0657e-06
3.62902e-06
3.12869e-06
3.39897e-06
2.02469e-06
5.57722e-06
3.36749e-06
3.09562e-06
8.76502e-07
1.49535e-06
3.05488e-06
3.18721e-06
3.6878e-06
3.73741e-06
3.57382e-06
9.68065e-07
9.12567e-07
3.51724e-06
4.47152e-06
5.56938e-06
3.80222e-06
5.60007e-06
8.66291e-07
5.59848e-06
8.47062e-07
3.18718e-06
4.74152e-06
3.17399e-06
8.49412e-07
7.88971e-07
5.57011e-06
8.66156e-07
5.14725e-06
5.56658e-06
5.56281e-06
1.94405e-06
7.53537e-07
4.91171e-06
4.46063e-06
9.72908e-07
3.71356e-06
3.37109e-06
3.5164e-06
3.45617e-06
5.53885e-06
1.73488e-06
5.57117e-06
1.62664e-06
4.07623e-06
5.56547e-06
3.39016e-06
3.65517e-06
3.4535e-06
4.036e-06
3.47961e-06
2.66038e-06
3.69185e-06
5.29477e-06
3.96904e-06
8.8681e-07
1.95053e-06
4.19256e-06
9.14915e-07
9.68039e-07
1.00024e-06
3.69511e-06
5.51255e-06
3.82309e-06
2.1448e-06
3.66128e-06
8.06337e-07
4.80229e-06
3.97226e-06
3.09476e-06
3.56187e-06
4.42321e-06
3.54626e-06
3.57393e-07
4.27447e-06
4.06378e-06
3.9269e-06
8.04933e-07
3.1814e-06
5.56002e-06
3.42576e-06
1.54698e-06
5.52708e-06
4.99608e-06
1.1297e-06
5.56202e-06
3.87418e-06
8.70304e-07
3.60445e-06
3.48327e-06
5.57208e-06
5.5739e-06
5.57793e-06
8.37873e-07
3.60128e-06
4.67274e-06
3.57296e-06
5.55658e-06
1.5462e-06
3.72427e-06
8.55716e-07
1.9883e-06
2.62876e-06
1.56211e-06
5.53203e-06
1.41019e-06
5.5747e-06
1.99761e-06
2.69494e-06
3.3783e-07
4.04879e-06
3.50523e-06
5.5665e-06
5.45943e-06
5.10177e-06
9.03037e-07
3.61116e-06
4.74257e-06
1.87237e-06
1.07522e-06
5.56232e-06
9.03391e-07
5.575e-06
4.22618e-06
5.57596e-06
5.56002e-06
7.70731e-07
5.56288e-06
8.29555e-07
7.95215e-07
5.57576e-06
5.56652e-06
2.68828e-06
5.55909e-06
4.1125e-06
7.23844e-07
3.9735e-06
5.59133e-06
3.66595e-06
5.59425e-06
3.2124e-06
7.54121e-07
3.08472e-06
9.0501e-07
5.58569e-06
4.45467e-06
2.88351e-06
8.38936e-07
6.18872e-07
5.28744e-06
3.27474e-06
2.41778e-06
4.40896e-06
5.5752e-06
3.99705e-06
7.98484e-07
5.56773e-06
3.80753e-06
6.16367e-07
3.98707e-06
1.1201e-06
5.49923e-06
4.64694e-06
3.50614e-06
5.57029e-06
1.41281e-06
3.6496e-06
1.49065e-06
3.74292e-06
4.08891e-06
5.57763e-06
2.62011e-06
5.57612e-06
5.5764e-06
3.74457e-06
1.78401e-06
5.57365e-06
3.2515e-06
4.1399e-06
5.25701e-06
5.58189e-06
5.01797e-07
3.97219e-06
2.44492e-06
5.96236e-07
5.53876e-06
5.56244e-07
2.04456e-06
5.02301e-06
5.57035e-06
3.6647e-06
5.53735e-06
6.24819e-06
1.19218e-06
1.25291e-06
3.45778e-06
5.47561e-06
3.32373e-06
6.58581e-07
4.1128e-06
5.44151e-06
5.57809e-06
2.28655e-06
3.13262e-06
3.71919e-06
1.91217e-06
5.53345e-06
2.71777e-06
2.68952e-07
5.55688e-06
1.77521e-06
2.45303e-06
1.53959e-06
7.7057e-07
5.56814e-06
7.92895e-07
7.44465e-07
4.05754e-06
5.56081e-06
5.5424e-06
5.58244e-06
5.38353e-06
5.7276e-07
5.56673e-06
5.48552e-06
2.65016e-07
3.72477e-06
5.55201e-06
5.51064e-06
5.56837e-06
6.9342e-07
7.12335e-07
4.86771e-06
5.57187e-06
5.35698e-06
2.15725e-06
3.11459e-06
1.88773e-06
3.03532e-06
4.32183e-06
5.57472e-06
3.5237e-06
6.11583e-07
1.40769e-06
5.57729e-06
3.73133e-06
5.58076e-06
3.94629e-06
4.57462e-06
3.26292e-06
1.75127e-06
2.21558e-06
6.87475e-07
4.36298e-06
2.61006e-06
5.56545e-06
9.72435e-07
5.59195e-06
3.57743e-06
5.94583e-07
5.57486e-06
4.68494e-06
5.79698e-06
2.06922e-06
5.56923e-06
5.57194e-06
3.49463e-06
1.49524e-06
3.47108e-06
3.2328e-06
5.11187e-06
1.05692e-06
3.78488e-06
1.20423e-06
5.52271e-06
5.49708e-06
5.55261e-06
5.43076e-06
4.95425e-06
5.45444e-06
2.96329e-06
4.99652e-06
5.39837e-06
4.27425e-06
7.26278e-07
8.27418e-07
3.19343e-06
5.55369e-06
5.46157e-06
4.14289e-06
1.48661e-06
4.18381e-06
4.32639e-07
5.57069e-06
1.34394e-06
3.66633e-06
8.19593e-07
3.98593e-06
3.53288e-06
4.90732e-06
4.20192e-06
5.56819e-06
5.58001e-06
6.65442e-07
4.01858e-06
4.50133e-06
4.77302e-06
1.53833e-06
6.40089e-07
8.07236e-07
3.6022e-06
4.77073e-06
4.6841e-07
3.9883e-07
1.79238e-06
4.92472e-06
7.75953e-07
6.03732e-07
8.8189e-07
5.57206e-06
5.53929e-06
5.42375e-06
5.51301e-06
2.70021e-06
3.9851e-06
1.79835e-06
2.67364e-06
3.83987e-06
5.55621e-06
2.10925e-06
5.52178e-06
5.44145e-06
1.10223e-06
3.1584e-06
7.78964e-07
3.87066e-06
3.49594e-06
7.309e-07
3.29604e-06
4.2356e-06
4.96133e-06
3.91925e-06
5.44774e-06
3.23172e-06
1.38396e-06
5.58279e-06
5.45209e-06
5.50224e-06
1.61824e-06