/*--------------------------------*- C++ -*----------------------------------*\
  =========                 |
  \\      /  F ield         | OpenFOAM: The Open Source CFD Toolbox
   \\    /   O peration     | Website:  https://openfoam.org
    \\  /    A nd           | Version:  8
     \\/     M anipulation  |
\*---------------------------------------------------------------------------*/
FoamFile
{
    version     2.0;
    format      ascii;
    class       volScalarField;
    location    "5";
    object      p;
}
// * * * * * * * * * * * * * * * * * * * * * * * * * * * * * * * * * * * * * //

dimensions      [0 2 -2 0 0 0 0];

internalField   nonuniform List<scalar> 
3080
(
4.47962e-05
4.23284e-05
4.46508e-05
4.4802e-05
4.36473e-05
4.46299e-05
4.46542e-05
2.68086e-05
4.46054e-05
4.47615e-05
4.48146e-05
4.47884e-05
4.12717e-05
4.34114e-05
4.48191e-05
4.28203e-05
4.4715e-05
4.47229e-05
4.48083e-05
4.43251e-05
3.09669e-05
4.43646e-05
4.41037e-05
2.78592e-05
4.37804e-05
4.30201e-05
4.45896e-05
4.2996e-05
4.48028e-05
4.31914e-05
3.86851e-05
2.8974e-05
4.29491e-05
2.9919e-05
3.4543e-05
4.48812e-05
4.44548e-05
3.53405e-05
4.46932e-05
4.31829e-05
4.47779e-05
4.47164e-05
4.48625e-05
4.47287e-05
4.29179e-05
4.48167e-05
4.45584e-05
4.47961e-05
4.4758e-05
4.24595e-05
4.47233e-05
3.69753e-05
4.41587e-05
4.46548e-05
4.31672e-05
4.46738e-05
4.46406e-05
3.52456e-06
3.51108e-05
4.46698e-05
3.8707e-06
4.20566e-06
5.22079e-06
4.47205e-05
4.84132e-06
5.24945e-06
4.46862e-05
4.46766e-05
2.81904e-06
6.96027e-06
4.46593e-05
4.49482e-06
3.26124e-05
8.71459e-06
4.47522e-05
3.16681e-05
4.47456e-05
6.22961e-06
4.46968e-05
4.47554e-05
4.25021e-05
4.46804e-05
1.04732e-05
3.83951e-05
4.43465e-05
7.98007e-06
4.44811e-05
1.19679e-05
1.29029e-05
4.4505e-05
9.7363e-06
1.22321e-05
1.751e-06
1.09694e-05
1.18316e-05
4.46273e-05
1.14937e-05
1.36192e-05
1.46752e-05
4.46901e-05
4.46518e-05
3.23539e-06
3.51892e-06
3.18339e-05
4.44299e-05
4.34538e-05
4.47359e-05
1.32547e-05
1.26195e-05
1.36032e-05
1.5272e-05
1.64491e-05
4.47169e-05
5.92797e-06
6.41778e-06
2.78726e-05
4.43919e-05
2.23029e-06
2.42929e-06
1.42716e-05
1.53765e-05
4.47063e-05
4.44205e-05
7.02353e-06
7.59425e-06
4.47645e-05
4.47574e-05
1.80182e-05
1.93976e-05
4.29604e-05
8.12083e-06
8.77281e-06
4.46321e-05
9.22294e-06
9.95583e-06
4.48158e-05
4.45748e-05
4.47834e-05
1.96701e-05
2.11715e-05
1.97031e-05
1.86819e-05
4.47348e-05
1.03207e-05
1.11345e-05
4.27013e-05
4.47514e-05
1.70223e-05
1.83295e-05
4.40597e-06
4.78165e-06
4.4771e-05
4.46084e-05
4.45947e-05
4.47605e-05
2.13274e-05
2.29484e-05
3.36289e-05
4.08081e-06
4.46147e-05
2.14594e-05
2.31074e-05
2.48452e-05
4.32266e-05
2.43327e-06
2.04371e-05
4.47887e-05
4.46091e-05
5.80109e-06
1.86713e-05
2.0101e-05
4.45401e-05
2.74934e-05
2.32265e-05
3.4747e-05
7.54635e-06
2.66706e-05
2.47871e-05
4.47659e-05
4.10036e-07
4.18791e-07
3.77018e-07
1.44273e-05
2.2192e-05
3.16227e-05
4.45835e-05
2.49989e-05
9.30253e-06
2.03152e-05
2.18737e-05
4.46872e-05
1.56008e-05
4.44077e-05
2.911e-05
4.47411e-05
1.63688e-05
1.7627e-05
4.47362e-05
2.36808e-05
2.545e-05
2.83026e-06
3.08364e-06
1.10622e-05
2.83434e-05
1.67731e-05
2.41708e-05
2.59299e-05
2.39539e-05
2.68571e-05
4.47477e-05
1.15224e-05
1.24252e-05
4.42682e-05
4.47702e-05
4.29578e-05
4.46435e-05
1.79435e-05
2.72835e-05
2.52868e-05
1.28206e-05
5.48513e-06
5.94252e-06
2.76833e-05
1.31738e-05
1.41979e-05
4.43989e-05
4.40628e-05
4.45289e-05
6.57581e-06
7.11441e-06
2.99941e-05
4.44547e-05
2.86391e-05
2.57364e-05
4.44144e-05
2.8911e-05
2.86137e-05
7.67186e-06
8.2915e-06
4.47998e-05
1.48257e-05
1.5971e-05
4.44894e-05
2.6986e-05
8.11502e-07
7.82008e-07
8.61304e-07
2.73964e-05
4.47598e-05
8.77066e-06
9.47107e-06
4.07748e-05
2.50303e-05
1.86778e-06
2.04297e-06
4.18225e-05
2.44378e-05
9.87079e-06
1.06522e-05
2.92665e-05
4.47893e-05
2.24539e-05
2.41339e-05
2.50409e-05
2.33218e-05
2.56366e-05
2.38688e-05
4.47442e-05
2.38576e-05
2.21946e-05
4.46549e-05
1.75738e-05
1.89217e-05
1.92675e-05
2.51447e-05
4.44472e-05
2.26806e-05
2.10816e-05
4.47972e-05
2.15005e-05
1.99811e-05
2.79927e-05
2.03204e-05
1.88777e-05
2.95954e-05
2.44476e-05
2.27613e-05
2.50468e-05
1.39926e-05
1.85485e-05
1.72269e-05
2.44765e-05
1.92214e-05
2.06932e-05
2.10209e-05
1.73635e-05
1.6122e-05
3.21397e-05
5.70414e-07
5.1339e-07
5.73535e-07
2.38957e-05
2.27246e-05
1.61851e-05
1.50248e-05
1.51642e-05
1.50037e-05
1.39245e-05
2.32708e-05
2.16408e-05
2.09713e-05
4.46575e-05
1.38189e-05
1.28208e-05
2.80921e-05
1.92137e-05
3.02411e-05
2.33116e-05
1.20349e-05
1.11582e-05
2.21393e-05
2.0867e-05
2.24685e-05
4.47659e-05
2.27782e-05
1.63378e-05
1.74497e-05
1.02652e-05
9.50935e-06
1.97364e-05
1.83335e-05
2.20914e-05
2.05344e-05
9.09247e-06
8.41699e-06
1.56864e-05
7.91144e-06
7.31785e-06
1.45166e-05
1.75075e-05
2.03849e-05
1.5925e-05
1.71512e-05
6.12678e-06
5.65417e-06
4.45599e-05
1.27536e-05
2.4538e-05
4.94136e-06
4.54877e-06
3.69052e-05
2.09134e-05
1.94315e-05
2.15569e-05
4.47846e-05
1.09941e-05
4.4733e-05
2.89215e-06
3.16407e-06
4.1919e-05
4.46448e-05
1.86251e-05
9.23502e-06
7.47401e-06
2.63643e-05
5.70708e-06
4.44944e-05
3.92032e-06
1.91435e-05
1.77813e-05
4.46433e-05
1.98007e-05
4.21617e-05
2.96224e-05
1.62739e-05
4.44887e-05
3.13431e-05
1.79553e-05
1.66738e-05
4.46243e-05
4.30128e-05
4.47554e-05
4.4815e-05
1.26277e-05
1.17108e-05
1.80404e-05
2.27428e-06
1.33424e-05
1.67767e-05
1.55759e-05
4.47569e-05
2.19841e-05
2.36516e-05
2.93771e-05
1.0853e-05
1.00572e-05
4.46882e-05
1.68593e-05
2.61956e-05
2.92061e-05
4.46692e-05
1.15827e-05
2.57367e-05
4.47393e-05
1.55955e-05
1.44757e-05
4.33269e-05
9.8226e-06
1.51027e-05
1.44136e-05
1.33749e-05
4.45189e-05
2.92971e-05
6.72129e-06
6.20903e-06
4.33569e-05
8.06307e-06
1.39282e-05
1.32305e-05
1.22733e-05
4.47468e-05
4.44215e-05
6.29984e-06
5.96566e-07
6.5571e-07
5.58434e-07
4.47277e-05
1.90218e-06
1.74608e-06
4.48138e-05
1.2167e-05
1.14509e-05
1.06148e-05
3.74951e-06
3.43825e-06
4.47887e-05
4.36381e-05
4.45114e-05
4.44308e-05
4.39484e-05
2.95678e-06
2.71544e-06
4.4644e-05
4.52105e-06
5.3858e-06
5.83488e-06
1.3517e-06
1.47535e-06
1.40947e-06
4.47261e-05
6.47684e-06
7.00705e-06
7.5741e-06
8.18546e-06
8.6733e-06
9.36574e-06
9.77438e-06
1.05477e-05
1.04071e-05
4.47007e-05
9.68444e-06
8.9691e-06
1.73014e-06
1.87355e-06
9.98405e-07
9.74599e-07
1.06515e-06
3.89811e-05
1.58214e-05
1.70391e-05
4.2444e-05
4.46512e-05
4.47751e-05
8.51107e-06
7.87651e-06
4.47481e-05
4.22118e-05
4.11659e-05
4.48193e-05
2.189e-05
2.3541e-05
8.64846e-06
4.46504e-05
4.46567e-05
4.4666e-05
1.89048e-06
2.05186e-06
1.38412e-05
1.50161e-05
4.41268e-05
7.32662e-06
6.77388e-06
1.61893e-05
3.03857e-05
1.73596e-05
4.47711e-05
4.13879e-05
4.47412e-05
4.47792e-05
4.47764e-05
4.27761e-05
4.46362e-05
4.45229e-05
6.88665e-06
1.80866e-06
4.47413e-05
4.41427e-05
4.13121e-05
4.475e-05
2.83459e-05
4.45194e-05
5.5364e-06
5.10334e-06
4.46666e-05
3.86656e-05
4.46059e-05
2.72147e-06
4.46482e-05
4.47223e-05
4.47091e-05
2.99364e-05
4.46682e-05
4.29773e-06
4.66486e-06
5.11442e-06
4.36455e-05
4.46267e-05
4.34827e-06
3.99652e-06
4.47277e-05
4.4611e-05
4.46153e-05
5.64108e-06
4.44594e-05
3.91693e-06
4.37721e-05
4.46723e-05
7.38838e-06
1.14155e-05
1.23101e-05
4.38152e-05
4.47822e-05
1.40814e-05
1.30657e-05
9.14456e-06
1.58551e-05
1.47186e-05
4.46882e-05
1.88036e-05
1.74644e-05
2.0577e-05
1.91177e-05
2.23527e-05
2.07681e-05
1.09013e-05
4.46053e-05
3.07987e-05
4.47542e-05
4.40129e-05
1.26598e-05
4.48052e-05
4.47458e-05
2.28218e-06
2.67379e-05
2.35723e-06
2.56577e-06
4.43166e-05
4.46567e-05
4.24e-05
4.47447e-05
1.91098e-05
2.08656e-05
2.2631e-05
4.47966e-05
2.62194e-05
2.43982e-05
4.34156e-05
2.85567e-05
4.38838e-05
4.47525e-05
4.46647e-05
4.36723e-05
4.45366e-05
4.47089e-05
4.47623e-05
4.4648e-05
4.47299e-05
4.0427e-05
4.45961e-05
3.22658e-05
4.47463e-05
4.47399e-05
4.38727e-05
4.37213e-05
4.35569e-05
4.47481e-05
4.23477e-05
4.4168e-05
4.47574e-05
4.42704e-05
4.4656e-05
4.47413e-05
4.46428e-05
2.98563e-05
4.46095e-05
4.47294e-05
4.25451e-05
4.46653e-05
4.47898e-05
2.5873e-05
4.46877e-05
4.46901e-05
4.47176e-05
4.47339e-05
4.43209e-05
2.79306e-06
4.47536e-05
3.3196e-06
4.47413e-05
4.32869e-05
3.12703e-05
2.67799e-05
4.40024e-05
4.47405e-05
4.46751e-05
4.47903e-05
4.46924e-05
4.47623e-05
4.47502e-05
4.47676e-05
4.47902e-05
4.4721e-05
4.42329e-05
4.47651e-05
4.45199e-05
4.46994e-05
4.426e-05
2.84365e-05
4.46696e-05
4.47286e-05
3.95708e-05
4.46829e-05
4.47184e-05
4.25368e-05
4.38058e-05
3.92084e-05
4.46439e-05
4.47521e-05
4.4281e-05
4.47671e-05
4.47308e-05
4.46227e-05
4.40736e-05
4.4764e-05
4.37893e-05
4.46598e-05
4.4458e-05
4.47988e-05
4.46753e-05
4.47055e-05
3.09989e-06
2.84675e-06
4.46588e-05
4.36814e-05
4.46881e-05
4.36096e-05
4.47808e-05
4.47752e-05
4.46217e-05
4.47404e-05
2.79355e-05
4.47694e-05
4.46629e-05
4.47683e-05
4.47888e-05
4.45858e-05
4.47944e-05
4.47439e-05
4.47208e-05
4.47456e-05
4.4737e-05
4.46423e-05
4.46563e-05
4.47767e-05
4.47387e-05
4.47529e-05
4.47866e-05
4.46702e-05
4.46492e-05
4.46999e-05
4.4748e-05
4.47139e-05
4.46794e-05
4.46643e-05
4.46799e-05
4.47839e-05
4.46236e-05
4.46905e-05
4.32381e-05
4.47962e-05
4.40964e-05
4.47358e-05
4.46234e-05
4.40857e-05
4.41357e-05
4.47316e-05
3.12407e-05
4.4867e-05
4.39769e-05
4.46542e-05
4.47469e-05
4.46578e-05
4.47981e-05
4.46773e-05
4.47608e-05
4.47268e-05
4.47816e-05
4.46408e-05
4.4771e-05
4.378e-05
4.42846e-05
4.47692e-05
4.47657e-05
4.46875e-05
4.41586e-05
4.46816e-05
4.46328e-05
4.47834e-05
4.34646e-05
4.44991e-05
4.49072e-05
4.47154e-05
4.47436e-05
4.46756e-05
4.46514e-05
4.46647e-05
4.48016e-05
4.47528e-05
4.46186e-05
4.47612e-05
4.46528e-05
4.46545e-05
4.47953e-05
4.39992e-05
2.85178e-06
4.47476e-05
4.41001e-05
4.46255e-05
4.47452e-05
4.46635e-05
4.47539e-05
4.47487e-05
4.48089e-05
4.47968e-05
4.45497e-05
4.46588e-05
4.32103e-05
4.48031e-05
4.47552e-05
4.47681e-05
4.44875e-05
4.47286e-05
4.46839e-05
4.47927e-05
4.47706e-05
4.48236e-05
4.45438e-05
4.47798e-05
4.46689e-05
4.46643e-05
4.4775e-05
4.37763e-05
3.33807e-06
4.46711e-05
4.47501e-05
4.38914e-05
4.43597e-05
4.47379e-05
4.377e-05
4.48344e-05
4.45913e-05
4.46213e-05
4.47967e-05
4.46529e-05
4.47918e-05
4.46748e-05
4.44015e-05
2.80689e-05
4.43024e-05
4.4243e-05
4.47062e-05
4.47301e-05
4.47912e-05
4.48003e-05
4.47911e-05
4.46714e-05
4.48572e-05
4.48092e-05
4.42055e-05
4.48216e-05
4.42505e-05
4.47817e-05
4.48171e-05
4.48644e-05
4.47101e-05
4.46567e-05
4.47867e-05
4.47709e-05
4.4739e-05
4.48216e-05
4.46049e-05
4.46971e-05
4.46234e-05
4.47951e-05
4.47781e-05
4.46457e-05
4.47402e-05
4.47644e-05
4.47105e-05
2.6565e-05
4.47951e-05
4.45153e-05
4.44765e-05
4.47281e-05
4.47463e-05
4.47689e-05
4.47912e-05
4.43197e-05
4.48077e-05
4.46825e-05
4.46394e-05
4.46771e-05
4.467e-05
4.48599e-05
4.46903e-05
4.47701e-05
4.46048e-05
4.48108e-05
4.47081e-05
4.47036e-05
4.47894e-05
4.44597e-05
4.46416e-05
4.48323e-05
4.47208e-05
4.48228e-05
4.48005e-05
4.46663e-05
4.46428e-05
4.47503e-05
4.46348e-05
4.47359e-05
4.4819e-05
4.46388e-05
4.46362e-05
4.47055e-05
4.46509e-05
4.45797e-05
4.45828e-05
4.46911e-05
4.48219e-05
4.47758e-05
4.47321e-05
4.41322e-05
4.45829e-05
4.46744e-05
3.64644e-06
3.35035e-06
4.47316e-05
4.47924e-05
4.4605e-05
4.42627e-05
4.41944e-05
3.89908e-06
4.46931e-05
4.46817e-05
4.47981e-05
4.46906e-05
4.46156e-05
4.4697e-05
4.4547e-05
4.41252e-05
4.48066e-05
4.40792e-05
4.4149e-05
4.42374e-05
4.47964e-05
4.47984e-05
4.4128e-05
4.46218e-05
4.45856e-05
4.45396e-05
4.48108e-05
4.4201e-05
4.39347e-05
4.47847e-05
4.47608e-05
4.46465e-05
3.90899e-05
4.47826e-05
4.43981e-05
4.47145e-05
4.41448e-05
4.47717e-05
4.40402e-05
4.43186e-05
4.48003e-05
4.40357e-05
4.4269e-05
4.46083e-05
4.47487e-05
4.47653e-05
4.33752e-05
4.39988e-05
4.41973e-05
4.42445e-05
4.48012e-05
4.45907e-05
4.46889e-05
4.43456e-05
4.4227e-05
4.46069e-05
4.4538e-05
4.45502e-05
4.45433e-05
4.41256e-05
4.43341e-05
4.39364e-05
4.46862e-06
4.47714e-05
4.46579e-05
4.47582e-05
4.20577e-06
3.86854e-06
4.43598e-05
3.73601e-06
3.42729e-06
4.45476e-05
4.3436e-05
4.47737e-05
4.47759e-05
4.45689e-05
4.47703e-05
4.4409e-05
4.45677e-05
4.46769e-05
4.47524e-05
4.43928e-05
4.47929e-05
4.45626e-05
4.45944e-05
4.44279e-05
4.44598e-05
4.40041e-06
4.77815e-06
2.66276e-05
4.44569e-05
4.42096e-05
4.47004e-05
4.43786e-05
4.44997e-05
4.4513e-05
4.479e-05
4.46568e-05
4.32412e-05
4.4299e-05
4.34968e-05
4.44377e-05
4.50064e-05
4.43289e-05
4.47212e-05
4.45764e-05
4.61244e-06
4.45817e-05
4.34223e-05
4.43628e-05
4.42603e-05
4.44718e-05
4.43516e-05
5.04439e-06
4.46508e-05
4.48041e-05
4.38096e-05
4.44454e-05
5.35769e-06
4.93967e-06
4.39297e-05
4.4434e-05
2.67407e-06
2.4443e-06
2.63095e-05
4.47735e-05
4.41275e-05
4.44515e-05
5.62647e-06
4.3859e-05
4.47731e-05
4.40785e-05
4.45971e-05
4.45634e-05
5.48426e-06
5.94297e-06
4.46495e-05
6.21179e-06
4.43533e-05
4.43774e-05
4.39176e-05
4.43546e-05
6.37921e-06
6.79673e-06
4.46535e-05
6.53323e-06
6.03406e-06
4.47452e-05
7.38242e-06
6.58592e-06
7.12563e-06
6.21156e-06
6.72351e-06
4.35678e-05
7.96906e-06
4.47576e-05
7.13742e-06
7.71774e-06
8.13684e-06
8.55468e-06
2.63488e-05
7.68782e-06
8.30876e-06
9.13993e-06
2.90836e-05
8.8962e-06
8.23482e-06
9.72637e-06
9.48381e-06
8.7822e-06
9.89395e-06
1.03131e-05
1.00698e-05
9.32787e-06
1.08993e-05
1.14861e-05
9.87589e-06
1.06584e-05
1.16536e-05
1.04247e-05
1.12475e-05
1.20722e-05
1.00643e-05
1.08589e-05
1.26586e-05
1.18395e-05
1.09762e-05
1.32455e-05
1.15304e-05
1.24341e-05
1.38326e-05
1.34124e-05
1.30281e-05
1.20839e-05
1.26247e-05
1.17085e-05
1.44188e-05
1.26357e-05
1.36204e-05
1.42134e-05
1.31882e-05
1.5004e-05
1.48025e-05
1.37368e-05
1.55872e-05
1.53928e-05
1.42866e-05
1.61752e-05
1.48364e-05
1.59831e-05
1.45779e-05
8.13236e-06
2.78069e-05
2.91056e-05
2.66356e-05
2.42499e-05
2.60327e-05
3.64112e-06
3.34719e-06
1.37249e-05
1.47893e-05
7.70429e-06
7.12536e-06
1.63476e-05
2.66202e-05
2.48252e-05
1.16479e-05
2.39937e-05
1.53876e-05
2.74686e-05
1.6575e-05
4.64907e-06
2.83882e-05
2.04875e-05
1.87278e-05
1.44108e-06
1.29925e-06
2.53943e-05
2.9755e-06
1.34071e-05
1.30161e-05
1.2073e-05
2.42462e-05
2.25471e-05
2.5976e-05
1.67608e-05
2.12836e-05
1.97688e-05
3.34617e-05
2.30602e-05
2.14216e-05
8.22268e-06
9.88838e-06
1.12444e-05
1.04228e-05
8.88251e-06
1.65638e-05
1.53782e-05
2.72118e-05
5.36322e-06
4.947e-06
2.56919e-05
6.38206e-06
2.87422e-05
3.06933e-05
6.53023e-06
6.03249e-06
3.01982e-05
2.54373e-06
2.32911e-06
2.91042e-05
1.00621e-05
9.3213e-06
3.25475e-05
2.54463e-05
2.14437e-05
2.22467e-05
2.30697e-05
2.24791e-05
2.08874e-05
2.61572e-05
1.95674e-05
1.81763e-05
2.36592e-05
2.32044e-05
1.57503e-05
2.48507e-05
2.42529e-05
2.87286e-05
2.26205e-05
2.20052e-05
2.08685e-05
1.59371e-05
1.80932e-05
2.88318e-05
2.31189e-05
1.69223e-05
1.92397e-05
2.25666e-05
2.49671e-05
2.02826e-05
1.96963e-05
2.55541e-05
2.36714e-05
1.64881e-05
1.83477e-05
1.7756e-05
2.20373e-05
1.89405e-05
1.95312e-05
1.71647e-05
1.86911e-05
2.33662e-05
2.03361e-05
1.75918e-05
2.14529e-05
2.43824e-05
1.85251e-05
2.86629e-05
2.78624e-05
1.70396e-05
2.68555e-05
2.37941e-05
2.51294e-05
2.01212e-05
1.98529e-05
1.77416e-05
1.64751e-05
2.07107e-05
2.60378e-05
1.91104e-05
2.16062e-05
2.77858e-05
2.18882e-05
1.95129e-05
1.81248e-05
1.81415e-05
2.83279e-05
1.73491e-05
1.97863e-05
2.72139e-05
1.79366e-05
2.60571e-05
2.42492e-05
2.89075e-05
2.66272e-05
2.56179e-05
2.12985e-05
2.85036e-05
2.70926e-05
2.85572e-05
2.73585e-05
2.61246e-05
2.4218e-05
4.43116e-05
2.4986e-05
2.53295e-05
2.47579e-05
2.57826e-05
4.44911e-05
4.46131e-05
4.44892e-05
2.70242e-05
4.46466e-05
4.47709e-05
4.4443e-05
2.38504e-05
4.44662e-05
4.44121e-05
4.47365e-05
4.45955e-05
4.46457e-05
2.81934e-05
4.4141e-05
2.51277e-05
4.44108e-05
4.45326e-05
4.44127e-05
4.40558e-05
4.42278e-05
4.29526e-05
2.44249e-05
2.76711e-05
4.44627e-05
4.42546e-05
2.73355e-05
4.45109e-05
4.43842e-05
2.45637e-05
4.45701e-05
4.43061e-05
4.4772e-05
4.47688e-05
4.47758e-05
4.45799e-05
4.43664e-05
4.46334e-05
4.46192e-05
4.26377e-05
4.43773e-05
4.43393e-05
4.46483e-05
4.34317e-05
2.17632e-05
2.02192e-05
4.45778e-05
4.46377e-05
4.48796e-05
4.47427e-05
2.67003e-05
4.42439e-05
4.46974e-05
4.42726e-05
4.41591e-05
4.47875e-05
4.3611e-05
4.46185e-05
4.41952e-05
4.45241e-05
4.45066e-05
4.42177e-05
4.45472e-05
4.39172e-05
4.47495e-05
4.45576e-05
4.47462e-05
4.44793e-05
4.43277e-05
4.41709e-05
4.44986e-05
4.46014e-05
4.44889e-05
4.46637e-05
4.47388e-05
4.46299e-05
4.46648e-05
4.47019e-05
4.46331e-05
4.39173e-05
4.44929e-05
4.46591e-05
4.45515e-05
2.48608e-05
2.31388e-05
4.46961e-05
4.45459e-05
4.41615e-05
4.45072e-05
4.45212e-05
4.46133e-05
4.46417e-05
4.47003e-05
4.44956e-05
4.46953e-05
2.45618e-05
4.44723e-05
4.47451e-05
4.44294e-05
4.46603e-05
4.38155e-05
4.47764e-05
4.38274e-05
4.44833e-05
4.46397e-05
4.42808e-05
4.44047e-05
4.4759e-05
4.42033e-05
4.41763e-05
4.46317e-05
4.47539e-05
4.4502e-05
4.47185e-05
4.47546e-05
4.47903e-05
2.96982e-05
4.4733e-05
4.48044e-05
4.47932e-05
4.47139e-05
4.46051e-05
4.45917e-05
4.46503e-05
4.45948e-05
4.47979e-05
4.47547e-05
4.47284e-05
4.45363e-05
4.46068e-05
4.48111e-05
4.47828e-05
4.4773e-05
4.4753e-05
4.45222e-05
4.47865e-05
4.47506e-05
4.47787e-05
4.44686e-05
4.41426e-05
4.46343e-05
4.46611e-05
1.9988e-05
1.85685e-05
4.47444e-05
4.479e-05
4.46261e-05
4.45823e-05
4.44031e-05
4.46345e-05
2.44347e-05
2.27279e-05
4.47001e-05
4.35291e-05
4.45284e-05
2.92828e-05
4.47539e-05
4.4543e-05
2.54593e-05
2.37e-05
1.37351e-06
4.46706e-05
4.45344e-05
4.45469e-05
4.47979e-05
4.47868e-05
4.46591e-05
4.46607e-05
4.47767e-05
4.46523e-05
4.47424e-05
4.45417e-05
4.47595e-05
4.4816e-05
4.40233e-05
4.4641e-05
4.46883e-05
4.46245e-05
4.45898e-05
4.47856e-05
4.46199e-05
4.46141e-05
4.46936e-05
4.4777e-05
4.46613e-05
4.47687e-05
4.4786e-05
4.4783e-05
4.42326e-05
4.4781e-05
4.41881e-05
4.47935e-05
4.47514e-05
4.39069e-05
4.36854e-05
4.47523e-05
4.47967e-05
4.46495e-05
4.46683e-05
4.47839e-05
4.45021e-05
4.47884e-05
4.41058e-05
4.47521e-05
4.46344e-05
4.45051e-05
4.42097e-05
4.47529e-05
4.4656e-05
4.4794e-05
4.4636e-05
2.36925e-05
2.20324e-05
4.4533e-05
4.46698e-05
4.4714e-05
1.82169e-05
1.69182e-05
4.39237e-05
2.34164e-05
4.45653e-05
4.47599e-05
4.47919e-05
4.45923e-05
4.47019e-05
4.4784e-05
4.47249e-05
4.44953e-05
4.47132e-05
4.45185e-05
4.47678e-05
4.47293e-05
4.47271e-05
2.39749e-05
4.4685e-05
4.47394e-05
4.45803e-05
4.47977e-05
4.39782e-05
4.47251e-05
4.46926e-05
4.48094e-05
4.46058e-05
4.35788e-05
4.45932e-05
4.32847e-05
4.44499e-05
4.45864e-05
4.46577e-05
4.4676e-05
4.47431e-05
4.47437e-05
4.46823e-05
4.47633e-05
4.4356e-05
4.46814e-05
4.4405e-05
4.47362e-05
4.47816e-05
4.4799e-05
4.45703e-05
4.47899e-05
4.4786e-05
4.46592e-05
4.46063e-05
4.4813e-05
4.4702e-05
4.46729e-05
4.4792e-05
4.45603e-05
4.45037e-05
2.56078e-05
4.47732e-05
4.47619e-05
4.47177e-05
4.47874e-05
4.4758e-05
4.44683e-05
4.45521e-05
4.45069e-05
4.47766e-05
4.47135e-05
4.47583e-05
4.42632e-05
4.47792e-05
4.44123e-05
4.47379e-05
4.4635e-05
4.47731e-05
4.47579e-05
4.47573e-05
4.46304e-05
4.46269e-05
4.46337e-05
4.47767e-05
4.46417e-05
4.46386e-05
4.43434e-05
4.40846e-05
4.47653e-05
4.47389e-05
4.46457e-05
4.47138e-05
4.44736e-05
4.37061e-05
2.32513e-05
2.16194e-05
4.4721e-05
4.46897e-05
2.28034e-05
4.47302e-05
4.44398e-05
4.48038e-05
4.4618e-05
4.47954e-05
4.47137e-05
4.4768e-05
4.46565e-05
2.50263e-05
2.32852e-05
4.48047e-05
4.47774e-05
4.47062e-05
4.46617e-05
4.4783e-05
4.4789e-05
4.47033e-05
4.46978e-05
4.46995e-05
4.47292e-05
4.4619e-05
2.33904e-05
4.46805e-05
4.47366e-05
4.47164e-05
4.47751e-05
4.45994e-05
4.47984e-05
4.38021e-05
4.47752e-05
4.47196e-05
3.23443e-05
4.47942e-05
4.46313e-05
4.47992e-05
4.47266e-05
4.46362e-05
4.41723e-05
4.48023e-05
4.47901e-05
4.46048e-05
4.48101e-05
4.39944e-05
4.47728e-05
4.47277e-05
4.46453e-05
4.47213e-05
4.46255e-05
4.47807e-05
4.47662e-05
4.47273e-05
4.44247e-05
4.46563e-05
4.47648e-05
4.48006e-05
4.46916e-05
4.39214e-05
4.45612e-05
4.48139e-05
4.4669e-05
4.43027e-05
4.46855e-05
4.47897e-05
4.48042e-05
4.47874e-05
4.4807e-05
4.4758e-05
4.45812e-05
4.4695e-05
4.47827e-05
4.47186e-05
4.47998e-05
4.48097e-05
4.47716e-05
4.4619e-05
4.4668e-05
4.47802e-05
4.47976e-05
4.48089e-05
4.48076e-05
4.46364e-05
4.46094e-05
4.46842e-05
4.45183e-05
4.47928e-05
4.47804e-05
4.47713e-05
4.47757e-05
4.47461e-05
4.45306e-05
4.46442e-05
4.47968e-05
4.44643e-05
4.47613e-05
2.25167e-05
2.09294e-05
4.47701e-05
4.47591e-05
4.46905e-05
2.38162e-05
4.45613e-05
4.47502e-05
1.52662e-05
1.41699e-05
4.47643e-05
4.46458e-05
4.47781e-05
4.47072e-05
4.46936e-05
4.4756e-05
4.45587e-05
4.46759e-05
4.46681e-05
4.46251e-05
4.45456e-05
4.46831e-05
4.47338e-05
4.47023e-05
4.45197e-05
4.45426e-05
4.47997e-05
4.40462e-05
4.46809e-05
4.43484e-05
4.42902e-05
4.3865e-05
4.45775e-05
4.43167e-05
4.47567e-05
4.45883e-05
4.43384e-05
4.39316e-05
4.47083e-05
4.46793e-05
4.47926e-05
4.47603e-05
4.47023e-05
4.40827e-05
4.46083e-05
4.47156e-05
4.4804e-05
4.47679e-05
4.46458e-05
4.47611e-05
4.46886e-05
4.4733e-05
4.47579e-05
4.44845e-05
4.44791e-05
4.4757e-05
4.37967e-05
4.46605e-05
4.47339e-05
4.43186e-05
4.37053e-05
4.44517e-05
5.07098e-06
4.4118e-05
4.48115e-05
4.47614e-05
2.20684e-05
2.05078e-05
4.48008e-05
2.16595e-05
4.47252e-05
4.38326e-05
4.47451e-05
4.46964e-05
4.47999e-05
4.47027e-05
4.46858e-05
2.42791e-05
2.25841e-05
4.46632e-05
4.46576e-05
1.3493e-05
1.25176e-05
4.47412e-05
4.47765e-05
4.46858e-05
4.36327e-05
4.48036e-05
4.47116e-05
4.39434e-05
4.47387e-05
4.48095e-05
2.28329e-05
4.38993e-05
4.47151e-05
4.47251e-05
4.47812e-05
2.20482e-05
4.47319e-05
6.81127e-06
4.48025e-05
4.4103e-05
4.45231e-05
4.47713e-05
4.46642e-05
4.44798e-05
4.4558e-05
4.4765e-05
4.47559e-05
4.47464e-05
4.47406e-05
4.43438e-05
4.47239e-05
4.47435e-05
4.47781e-05
4.47258e-05
4.459e-05
4.47812e-05
4.47826e-05
8.56517e-06
4.46839e-05
4.45909e-05
4.47926e-05
4.46446e-05
4.48009e-05
2.13345e-05
1.98256e-05
2.104e-05
4.47541e-05
4.47277e-05
4.46783e-05
3.36948e-06
4.4598e-05
4.47923e-05
4.47878e-05
4.47315e-05
1.17242e-05
1.08701e-05
4.48005e-05
4.47755e-05
1.03218e-05
4.47384e-05
4.46299e-05
4.47795e-05
-5.5788e-08
-8.57194e-08
-6.38112e-08
4.46508e-05
4.47949e-05
4.47592e-05
4.40042e-05
4.47104e-05
4.46128e-05
4.47537e-05
4.41455e-05
2.97482e-05
4.46041e-05
4.45022e-05
2.02878e-05
4.45451e-05
4.35911e-05
4.46453e-05
4.47732e-05
4.47526e-05
4.47767e-05
4.42516e-05
4.46728e-05
1.50298e-06
1.38775e-06
1.20796e-05
4.47155e-05
4.46776e-05
3.03738e-05
4.46841e-05
4.46763e-05
4.47401e-05
4.47753e-05
4.47328e-05
2.08855e-05
1.94042e-05
4.47145e-05
4.47552e-05
4.46894e-05
4.47446e-05
4.47069e-05
4.47096e-05
4.47166e-05
2.38427e-05
2.21765e-05
4.45443e-05
4.4766e-05
4.47345e-05
4.47996e-05
4.47022e-05
4.48038e-05
4.47752e-05
4.47493e-05
4.46923e-05
4.41676e-05
4.47927e-05
4.47686e-05
4.45278e-05
4.46667e-05
4.46514e-05
4.47013e-05
4.46267e-05
1.8531e-05
4.48041e-05
3.76601e-06
4.09176e-06
4.46921e-05
1.99016e-05
2.0157e-05
1.8726e-05
4.45548e-05
4.47416e-05
4.43237e-05
4.4679e-05
4.47516e-05
4.47021e-05
4.4578e-05
4.4721e-05
4.47173e-05
4.48118e-05
4.4381e-05
4.47944e-05
4.45981e-05
4.47478e-05
2.2214e-05
4.46573e-05
4.40214e-05
4.47535e-05
4.43786e-05
4.47946e-05
4.46641e-05
4.44536e-05
4.47134e-05
4.4766e-05
2.15615e-06
1.96362e-06
4.40677e-05
1.92826e-05
4.42672e-05
4.47197e-05
4.48088e-05
4.45843e-05
4.47263e-05
4.46513e-05
4.47618e-05
4.48023e-05
2.31112e-05
2.1486e-05
2.1626e-05
4.45935e-05
4.47983e-05
4.47239e-05
4.48059e-05
4.3963e-05
4.47609e-05
4.47282e-05
4.48035e-05
4.47134e-05
4.4701e-05
4.46334e-05
4.39551e-05
1.91146e-05
1.77548e-05
4.47987e-05
4.47565e-05
4.47571e-05
4.47003e-05
4.47186e-05
4.46553e-05
4.47206e-05
4.48135e-05
4.47635e-05
4.47548e-05
4.45583e-05
4.47601e-05
4.46682e-05
1.81413e-05
4.47358e-05
1.83778e-05
1.70674e-05
4.46444e-05
4.39139e-05
4.46476e-05
4.47463e-05
4.48179e-05
4.48029e-05
4.47193e-05
2.26597e-05
2.1062e-05
2.10725e-05
4.47507e-05
4.47444e-05
1.75208e-05
1.79331e-05
1.66537e-05
4.42259e-05
4.46508e-05
4.46343e-05
4.46432e-05
4.46277e-05
4.47436e-05
4.47553e-05
4.46751e-05
4.47467e-05
4.35272e-05
1.69697e-05
4.45713e-05
4.48037e-05
4.47569e-05
1.7199e-05
1.59693e-05
4.47934e-05
4.47574e-05
4.47575e-05
2.19286e-05
2.03807e-05
4.34197e-05
4.46289e-05
4.33583e-05
4.46589e-05
4.3548e-05
4.36314e-05
4.41687e-05
4.48086e-05
1.67528e-05
1.55546e-05
2.91764e-05
2.04537e-05
4.35986e-05
4.4794e-05
1.5764e-05
1.60182e-05
1.48697e-05
2.30322e-05
2.47316e-05
2.4721e-05
2.65272e-05
1.98678e-05
2.14769e-05
1.99564e-05
4.47991e-05
4.42004e-05
4.46557e-05
2.81999e-05
4.46603e-05
4.47715e-05
1.52115e-05
1.55711e-05
1.44536e-05
4.48053e-05
4.47357e-05
4.47288e-05
4.12301e-05
3.36601e-05
4.48118e-05
4.46422e-05
4.48045e-05
2.13589e-06
1.45867e-05
4.46622e-05
1.48384e-05
1.3771e-05
4.47287e-05
4.36804e-05
4.47553e-05
1.93142e-05
2.0747e-05
1.92762e-05
1.40393e-05
4.24013e-05
1.43896e-05
1.33528e-05
4.44614e-05
4.46405e-05
4.4731e-05
4.46694e-05
4.3859e-05
4.46473e-05
4.47999e-05
4.47379e-05
4.47616e-05
1.36573e-05
1.26707e-05
4.45175e-05
4.47015e-05
3.44664e-05
4.48093e-05
2.02927e-05
1.88519e-05
4.43921e-05
4.18807e-05
1.28271e-05
1.3209e-05
1.22532e-05
4.46186e-05
4.47838e-05
4.4816e-05
4.47787e-05
4.48113e-05
4.46041e-05
4.34954e-05
4.45133e-05
4.46877e-05
1.86949e-05
4.47243e-05
4.48052e-05
1.22802e-05
4.481e-05
4.47452e-05
1.92692e-06
4.4694e-05
4.47033e-05
4.46551e-05
4.47412e-05
4.47199e-05
4.47114e-05
2.84605e-05
1.81068e-05
4.47907e-05
4.47431e-05
1.9698e-05
1.8298e-05
4.34117e-05
4.4768e-05
4.4712e-05
4.4786e-05
1.18792e-05
1.10135e-05
4.47152e-05
4.46395e-05
4.47885e-05
4.47656e-05
4.46813e-05
4.47249e-05
4.46826e-05
4.46451e-05
4.48019e-05
1.1069e-05
4.42977e-05
3.15556e-05
1.14436e-05
1.06089e-05
2.90739e-05
4.47106e-05
3.6702e-05
4.46693e-05
4.38266e-05
4.38061e-05
1.75541e-05
1.05196e-05
1.89845e-05
1.76344e-05
4.21406e-05
4.48087e-05
4.43217e-05
4.47647e-05
4.46427e-05
4.47574e-05
1.01051e-05
9.36101e-06
4.46422e-05
4.42193e-05
4.47359e-05
4.48043e-05
4.46968e-05
9.30997e-06
4.46395e-05
1.69328e-05
9.67142e-06
8.95808e-06
1.85227e-05
1.72029e-05
4.46505e-05
4.47933e-05
4.47907e-05
4.46897e-05
8.76128e-06
4.47431e-05
8.93183e-06
8.26849e-06
4.47086e-05
4.46495e-05
4.47857e-05
4.47313e-05
4.46949e-05
8.48742e-06
7.85537e-06
1.77899e-05
1.65195e-05
4.47984e-05
4.46675e-05
4.46322e-05
4.48093e-05
7.55255e-06
4.47377e-05
7.74875e-06
7.16644e-06
4.47072e-05
1.63825e-05
4.48145e-05
4.4757e-05
4.47601e-05
4.46996e-05
4.46988e-05
4.48059e-05
6.99781e-06
7.3073e-06
6.7558e-06
4.47666e-05
1.57943e-05
4.45751e-05
4.47731e-05
1.73411e-05
1.6102e-05
4.47177e-05
4.46821e-05
4.46503e-05
5.79376e-06
4.44432e-05
5.95851e-06
5.49677e-06
1.51745e-05
1.66149e-05
1.54259e-05
2.36052e-05
2.53283e-05
4.46648e-05
5.53012e-06
5.1001e-06
4.43922e-05
5.22407e-06
4.40568e-05
4.47626e-05
2.53e-05
2.71143e-05
4.46958e-05
3.02564e-05
4.28097e-05
4.3792e-05
4.7617e-06
4.38056e-06
2.86192e-05
3.99972e-05
4.47537e-05
4.46395e-05
4.46717e-05
4.469e-05
1.46243e-05
2.58377e-06
2.35929e-06
4.47365e-05
1.61617e-05
1.50041e-05
4.32956e-06
3.98161e-06
4.47633e-05
4.46302e-05
4.46783e-05
4.46381e-05
4.47572e-05
4.02078e-06
1.39983e-05
4.46977e-05
4.47384e-05
1.54325e-05
1.43244e-05
4.48119e-05
4.46826e-05
4.47448e-05
4.47259e-05
2.82759e-06
2.56472e-06
4.45424e-05
4.47377e-05
4.4723e-05
4.46846e-05
4.46817e-05
4.47456e-05
4.459e-05
1.49802e-05
1.39032e-05
4.42621e-05
4.47661e-05
4.46774e-05
4.29868e-05
4.40834e-05
1.34516e-05
4.47703e-05
4.48134e-05
1.28625e-05
2.85962e-05
3.38503e-06
2.756e-05
1.42496e-05
1.32224e-05
4.47245e-05
1.31372e-06
4.47881e-05
4.18057e-05
4.45701e-05
4.2824e-05
4.4817e-05
1.2239e-05
4.46561e-05
1.3798e-05
1.28016e-05
4.46917e-05
2.6895e-05
4.47103e-05
1.30657e-05
1.21191e-05
4.37259e-05
3.97119e-05
4.47099e-05
1.1694e-05
4.47359e-05
1.11039e-05
1.12073e-06
9.28316e-07
4.45297e-05
4.46181e-05
1.24798e-05
1.15744e-05
4.47199e-05
4.47113e-05
4.47262e-05
4.46727e-05
4.46996e-05
4.48034e-05
1.048e-05
4.4703e-05
1.20328e-05
1.11571e-05
4.32206e-05
4.48042e-05
4.47654e-05
4.4769e-05
4.47506e-05
4.47417e-05
4.47477e-05
1.12892e-05
1.04637e-05
4.47573e-05
9.93328e-06
4.4727e-05
4.47752e-05
1.79421e-06
9.34468e-06
4.43413e-05
1.07096e-05
9.92586e-06
4.42764e-05
4.37303e-05
4.4513e-05
4.47741e-05
4.47678e-05
4.47454e-05
4.4709e-05
8.72277e-06
4.45693e-05
4.40309e-05
1.02633e-05
9.50921e-06
4.1909e-05
4.78625e-05
4.44263e-05
4.48832e-05
4.4307e-05
4.46763e-05
9.52153e-06
8.81734e-06
4.47042e-05
4.43071e-05
8.17406e-06
4.46687e-05
4.43769e-05
4.43932e-05
7.58317e-06
9.07755e-06
8.40488e-06
2.79398e-05
4.45533e-05
4.45503e-05
4.4813e-05
4.43836e-05
4.47523e-05
2.68028e-05
3.57083e-05
4.47637e-05
4.46569e-05
6.96454e-06
8.34446e-06
7.7217e-06
4.48037e-05
4.46563e-05
4.47946e-05
4.48084e-05
4.47433e-05
4.46372e-05
4.46865e-05
7.89562e-06
7.30403e-06
4.27877e-05
3.98747e-05
6.41017e-06
4.36213e-05
4.45803e-05
4.44381e-05
4.47659e-05
3.55412e-05
5.81429e-06
4.47124e-05
7.15622e-06
6.6142e-06
4.44534e-05
4.47704e-05
5.20299e-06
6.56997e-06
6.06936e-06
4.46454e-05
3.45424e-05
4.21451e-05
4.46658e-05
4.47157e-05
4.47865e-05
6.12723e-06
5.65589e-06
2.61272e-05
4.47055e-05
4.44328e-05
4.47969e-05
4.46241e-05
4.62221e-06
4.44017e-05
5.3664e-06
4.94442e-06
4.47758e-05
4.46627e-05
4.00931e-06
4.44793e-05
4.47265e-05
3.03836e-05
4.93264e-06
4.5435e-06
4.47132e-05
4.47893e-05
4.44373e-05
3.43135e-06
4.43855e-05
1.23486e-06
1.21933e-06
1.33247e-06
4.4314e-05
4.15215e-06
3.8112e-06
2.53473e-05
4.46537e-05
4.45956e-05
4.47534e-05
4.43738e-05
4.47108e-05
4.47317e-05
4.46168e-05
3.52664e-06
3.22659e-06
4.45896e-05
4.3242e-05
4.45979e-05
3.64075e-05
3.14809e-06
2.88115e-06
4.45747e-05
4.46659e-05
2.88087e-05
4.46355e-05
4.46063e-05
4.46144e-05
4.44708e-05
3.24754e-05
4.45172e-05
3.96621e-05
4.46452e-05
2.70988e-05
4.47634e-05
4.46533e-05
4.45306e-05
4.48132e-05
4.27714e-05
4.12787e-05
4.2291e-05
3.93508e-05
4.43926e-05
4.47678e-05
2.75006e-06
4.45949e-05
4.46517e-05
2.1825e-06
1.96013e-06
2.88031e-05
1.36771e-06
4.46843e-05
4.12317e-05
4.48035e-05
4.43457e-05
4.48254e-05
4.45458e-05
4.26623e-05
2.73964e-05
4.48082e-05
4.4566e-05
4.41989e-05
4.39959e-05
4.46518e-05
4.4756e-05
4.47913e-05
3.04941e-05
1.99884e-06
2.95192e-05
4.30925e-05
4.45789e-05
1.59103e-06
7.81286e-07
9.27689e-07
4.47389e-05
4.47841e-05
4.4547e-05
4.47914e-05
4.43823e-05
2.85783e-05
1.53748e-06
1.60516e-06