/*--------------------------------*- C++ -*----------------------------------*\
  =========                 |
  \\      /  F ield         | OpenFOAM: The Open Source CFD Toolbox
   \\    /   O peration     | Website:  https://openfoam.org
    \\  /    A nd           | Version:  8
     \\/     M anipulation  |
\*---------------------------------------------------------------------------*/
FoamFile
{
    version     2.0;
    format      ascii;
    class       volScalarField;
    location    "5";
    object      p;
}
// * * * * * * * * * * * * * * * * * * * * * * * * * * * * * * * * * * * * * //

dimensions      [0 2 -2 0 0 0 0];

internalField   nonuniform List<scalar> 
7843
(
2.13499e-06
6.49183e-06
6.93793e-06
8.71763e-06
1.57486e-06
8.76216e-06
8.27148e-06
1.22764e-06
8.5238e-06
1.97416e-06
4.96398e-06
2.06899e-06
8.52584e-06
5.2158e-06
3.90045e-06
4.73242e-06
4.87459e-06
3.97352e-06
8.54723e-06
8.3865e-06
8.50961e-06
8.33909e-06
5.04886e-06
7.71253e-06
3.97509e-06
8.50713e-06
2.87719e-07
8.38253e-06
8.55665e-07
8.65548e-06
8.49682e-06
2.61984e-06
8.52514e-06
1.38599e-06
4.67797e-06
4.41354e-06
3.63557e-06
8.34409e-06
8.6278e-06
7.13031e-06
3.81625e-06
5.54356e-06
1.61741e-06
6.39331e-06
8.52345e-06
8.30233e-06
5.13109e-06
8.1361e-06
6.94132e-06
8.53247e-06
8.52836e-06
6.29811e-06
2.94547e-06
8.25312e-06
1.79797e-06
8.54166e-06
8.2525e-06
8.52534e-06
6.97809e-07
8.51493e-06
1.43871e-06
8.21475e-06
8.19013e-06
8.52736e-06
4.2199e-07
4.66169e-06
4.65555e-06
8.53862e-06
8.28472e-06
1.34638e-06
8.51661e-06
2.74956e-06
7.28205e-06
8.5182e-06
8.52254e-06
4.39623e-06
1.7041e-06
1.52829e-06
2.31121e-06
8.8432e-06
8.54379e-06
6.34954e-07
5.29606e-06
8.42642e-06
1.97379e-06
2.12782e-06
8.39904e-06
8.91763e-07
8.41317e-06
8.29985e-06
8.51033e-06
5.82468e-06
8.53601e-06
8.50156e-06
8.41259e-06
2.49955e-06
8.5375e-06
2.59153e-07
8.52134e-06
4.49882e-06
3.29154e-07
3.05938e-07
8.3672e-06
5.06751e-07
8.49467e-06
7.54228e-06
8.53554e-06
8.5008e-06
7.57734e-06
6.01873e-06
8.27304e-07
8.18572e-06
8.222e-06
2.36726e-06
8.43541e-06
7.26715e-06
8.41895e-06
1.26331e-06
8.48977e-06
6.09504e-06
1.6631e-06
1.31222e-06
5.38891e-06
1.40874e-06
8.53091e-06
8.18666e-06
5.62328e-06
7.83726e-06
7.61134e-06
8.75041e-06
5.91539e-06
8.37579e-06
8.49488e-06
1.69146e-06
7.16405e-06
3.54301e-06
8.63583e-06
8.0746e-06
3.7275e-06
9.83883e-07
8.52338e-06
7.76186e-06
8.45963e-06
8.46446e-06
8.53647e-06
8.54302e-06
5.44329e-06
7.27287e-06
7.92442e-06
7.89189e-06
2.1239e-06
8.24922e-06
8.49187e-06
6.35651e-06
4.92277e-06
4.85158e-06
8.47127e-06
8.3674e-06
6.72076e-06
3.04588e-06
8.52147e-06
5.03514e-06
8.00678e-06
5.21729e-06
6.42012e-06
1.13572e-06
8.43725e-06
1.43609e-07
2.86569e-06
5.40113e-06
9.45667e-07
6.13749e-06
5.58517e-06
8.42149e-06
5.86121e-06
8.52144e-06
7.36116e-07
8.52472e-06
5.12392e-06
1.98564e-06
1.89773e-06
1.6342e-06
8.50764e-06
6.82757e-06
4.93351e-06
8.22049e-06
8.53457e-06
8.1621e-06
2.44603e-06
8.28741e-06
2.65818e-06
2.8411e-06
8.55775e-06
8.53103e-06
5.71807e-06
8.5252e-06
8.51168e-06
8.39919e-06
1.07339e-06
7.37184e-06
6.20441e-06
7.968e-07
5.73434e-06
2.20525e-06
5.35757e-07
8.52682e-06
5.91051e-07
8.52647e-06
8.50567e-06
6.18325e-06
7.99929e-06
6.11157e-06
7.54557e-06
3.87651e-06
5.192e-06
7.45981e-06
8.46677e-06
2.22146e-06
8.52531e-06
8.27016e-06
8.41264e-06
8.27472e-06
1.65006e-07
6.51759e-06
8.09178e-06
8.50981e-06
8.10151e-06
4.56985e-06
6.61762e-06
8.21204e-06
8.10916e-06
8.5345e-06
8.53152e-06
1.82915e-06
8.33155e-06
5.28221e-06
1.97975e-06
7.92537e-06
4.83332e-06
3.17677e-07
2.18699e-06
3.36116e-06
2.09526e-06
3.66337e-06
8.17883e-06
5.03386e-06
8.57152e-06
8.36454e-06
5.74361e-06
4.85287e-06
8.74552e-06
8.52999e-06
2.35118e-06
5.46303e-06
6.89583e-06
2.32898e-06
8.05594e-06
5.3723e-06
3.69386e-07
8.5259e-06
8.53701e-06
8.31491e-06
3.51828e-07
5.73445e-06
2.06232e-06
8.17748e-06
8.52789e-06
6.23042e-06
8.53074e-06
7.92754e-06
8.53324e-06
8.53301e-06
8.4821e-06
7.93842e-06
6.00773e-06
8.41074e-06
2.575e-06
1.8038e-06
8.22513e-06
5.79427e-06
9.96473e-07
5.5535e-06
6.00537e-06
8.41732e-06
8.5592e-06
8.52339e-06
8.30752e-06
5.73797e-06
8.22609e-07
6.43968e-06
8.5293e-06
8.49041e-06
8.57136e-06
2.02646e-06
8.19353e-06
3.05319e-06
3.37263e-06
8.27272e-06
7.88775e-06
6.67562e-06
7.99752e-06
8.34091e-06
3.27488e-06
2.93338e-06
8.44952e-06
8.22001e-06
8.52864e-06
7.3571e-06
8.2357e-06
8.15953e-06
8.21644e-06
7.88414e-06
8.43809e-06
8.52984e-06
8.52423e-06
8.409e-06
6.32452e-06
5.31617e-06
8.47669e-06
3.38392e-06
8.52054e-06
8.52349e-06
5.953e-06
5.82505e-06
8.26696e-06
8.00367e-06
8.56825e-06
8.45328e-06
8.07402e-06
8.52067e-06
3.12061e-06
5.64396e-06
8.59776e-06
8.56271e-06
7.86806e-06
8.30335e-06
3.56997e-07
3.09011e-06
7.33415e-06
8.32374e-06
8.26773e-06
2.74634e-06
8.5218e-06
3.80243e-07
8.11691e-06
3.58337e-07
3.0053e-06
8.39628e-06
8.22361e-06
2.70129e-07
8.65575e-06
2.94824e-06
8.52308e-06
8.52934e-06
2.48164e-06
8.52534e-06
8.25762e-06
8.23044e-06
2.48516e-06
6.27056e-06
8.87237e-06
6.09973e-06
8.18658e-06
9.14991e-06
8.6502e-06
2.85331e-06
6.80746e-06
8.38424e-06
8.43273e-06
6.57621e-06
6.55893e-06
8.51343e-06
2.27952e-06
8.30644e-06
1.55768e-06
8.66013e-06
5.67694e-06
5.10659e-06
5.11276e-06
8.82912e-06
5.89592e-06
8.38749e-06
8.61896e-06
8.27268e-06
4.71764e-07
2.85087e-06
5.1121e-06
8.5127e-06
2.4963e-07
3.80256e-06
5.01972e-06
8.47127e-06
8.46401e-06
8.51065e-06
8.21772e-06
3.21306e-06
8.52857e-06
7.94788e-06
8.49765e-06
1.53273e-06
1.93152e-06
8.52457e-06
8.5146e-06
6.28198e-08
6.83541e-06
6.7421e-06
6.28539e-06
6.97073e-06
8.52119e-06
8.08488e-06
8.31626e-06
2.55933e-06
7.25124e-06
8.46386e-06
7.10618e-06
8.54542e-06
8.52688e-06
6.90857e-06
5.91608e-06
6.04509e-06
8.41584e-06
8.18215e-06
8.5168e-06
2.5803e-06
2.29548e-07
1.7082e-07
8.30453e-06
2.58094e-07
8.54459e-06
8.21621e-06
8.54051e-06
8.52708e-06
2.7613e-06
8.53482e-06
7.41025e-06
7.98382e-06
8.46832e-06
6.61254e-06
3.4945e-06
8.52798e-06
2.23197e-06
8.46742e-06
8.43082e-06
8.52025e-06
7.02429e-06
8.34559e-06
8.19889e-06
7.58265e-06
8.49088e-06
6.95179e-06
1.10257e-06
1.04104e-06
8.29119e-06
8.31428e-06
8.31125e-06
3.23182e-06
2.82133e-06
8.44445e-06
7.25332e-06
8.52505e-06
8.3591e-06
7.50561e-07
2.40571e-07
2.08466e-07
8.35825e-06
3.11543e-07
8.31522e-06
8.25555e-06
8.50648e-06
8.05342e-06
3.29354e-06
9.17912e-07
8.51517e-06
8.53749e-06
8.33171e-06
2.40092e-06
6.98687e-06
8.52441e-06
8.09268e-06
6.51999e-06
8.12411e-06
8.38937e-06
8.48646e-06
8.48067e-06
8.09518e-06
8.31038e-06
3.10492e-06
7.19033e-06
7.98353e-08
6.61473e-07
5.53821e-06
7.14932e-06
8.52552e-06
2.50221e-06
8.4274e-06
8.75035e-06
8.32088e-08
7.87465e-08
8.43005e-06
8.52155e-06
3.45058e-06
8.51889e-06
1.28468e-06
7.70596e-06
2.56916e-06
1.64854e-06
1.19393e-06
8.5191e-06
2.66946e-06
7.26312e-06
8.52549e-06
8.63982e-06
3.58869e-06
3.29121e-06
8.17433e-06
6.66302e-06
8.03354e-06
8.51256e-06
8.49187e-06
8.14685e-06
7.528e-06
7.85691e-06
2.58602e-06
6.19228e-06
8.31462e-06
7.19071e-06
6.47121e-06
8.45496e-06
7.92637e-06
8.39016e-06
8.5054e-06
8.52429e-06
5.83464e-06
8.51528e-06
8.40905e-06
8.28387e-06
8.43082e-06
8.52528e-06
6.19269e-06
8.40549e-06
2.47869e-06
8.5045e-06
6.09903e-06
5.20342e-07
6.71444e-06
8.37806e-06
7.35439e-07
2.5975e-06
4.47372e-06
5.76916e-06
8.48165e-06
6.73093e-06
8.54157e-06
8.38043e-06
8.23059e-06
5.92593e-06
7.39268e-06
8.08212e-06
8.53224e-06
1.91787e-06
7.39753e-06
6.19911e-06
6.81696e-06
5.02084e-06
8.62684e-06
1.37562e-06
8.50995e-06
1.90318e-06
4.04097e-06
8.11519e-06
6.59109e-06
2.79096e-06
8.35117e-07
8.6232e-06
8.10892e-06
7.02824e-06
5.70818e-06
8.39389e-06
8.3356e-06
6.67375e-07
8.49151e-06
8.56614e-06
1.41232e-06
8.46201e-06
8.52586e-06
8.23764e-06
8.3469e-06
6.42834e-06
8.34154e-06
8.45359e-06
8.31487e-06
8.40937e-06
8.50767e-06
3.86949e-06
7.91913e-06
1.92844e-06
8.50152e-06
7.106e-06
8.50926e-06
8.40771e-06
8.23253e-06
8.53171e-06
1.92744e-06
9.58235e-08
1.44967e-07
6.65954e-06
6.25635e-06
4.58325e-06
3.38235e-06
8.44204e-06
8.49547e-06
5.98538e-06
7.46139e-06
8.11411e-06
3.60512e-06
6.29837e-06
8.5051e-06
4.1516e-06
6.39435e-06
8.37474e-06
8.52979e-06
8.64522e-06
5.6146e-06
8.1509e-06
8.39839e-06
8.2705e-06
7.92179e-06
8.43605e-06
8.24226e-06
7.016e-06
8.16236e-06
8.01977e-06
7.68628e-06
4.53938e-06
8.21045e-06
2.8505e-07
8.42232e-06
8.4982e-06
8.49159e-06
8.38838e-06
8.16765e-06
8.04041e-06
6.81763e-06
5.29171e-06
5.29663e-06
9.09482e-07
8.17576e-06
4.34006e-06
8.09911e-06
8.55953e-06
8.52342e-06
8.51911e-06
8.45809e-06
8.21078e-06
8.06835e-06
8.39616e-06
8.43534e-06
8.42548e-06
5.91174e-06
3.76035e-06
6.76992e-06
8.48841e-06
8.52177e-06
8.377e-06
1.01066e-06
8.52647e-06
8.24664e-06
8.26351e-06
3.14008e-06
1.87756e-06
8.11829e-06
7.28274e-06
3.93678e-06
8.1787e-06
8.52352e-06
8.08181e-06
6.93359e-06
8.4153e-06
8.2834e-06
6.47475e-06
8.52968e-06
4.85408e-06
8.50943e-06
5.83499e-06
8.19158e-06
8.53244e-06
1.39014e-06
8.26557e-06
8.52866e-06
7.95095e-06
5.19689e-06
2.96309e-06
6.57307e-06
4.22941e-06
7.97679e-06
8.18539e-06
8.37121e-06
8.4715e-06
4.15888e-06
8.33094e-06
8.11563e-06
1.31095e-06
8.61162e-06
7.4135e-06
2.059e-06
8.53071e-06
8.52545e-06
8.50252e-06
8.18349e-06
8.51935e-06
3.9479e-06
8.52392e-06
7.16468e-07
8.39935e-06
4.27562e-07
8.51029e-06
8.72735e-06
5.49333e-06
8.52552e-06
6.78314e-06
8.48929e-06
8.50643e-06
8.51012e-06
4.42676e-06
1.66596e-06
8.04226e-06
8.25804e-06
8.2025e-06
8.51447e-06
7.90834e-06
8.44164e-06
8.22622e-06
5.91942e-06
8.20372e-06
1.00361e-06
3.12031e-06
5.79512e-07
6.86931e-06
7.44201e-06
8.41321e-06
6.8832e-06
5.58089e-07
8.54474e-06
8.2627e-06
8.52341e-06
8.47394e-06
8.10461e-06
8.35014e-06
8.31458e-06
8.21914e-06
8.20287e-06
8.06605e-06
8.5135e-06
8.02985e-06
3.12121e-07
7.40806e-06
8.30888e-06
8.20258e-06
2.04584e-06
8.25933e-06
8.27704e-06
8.41578e-06
8.11128e-06
2.38771e-06
8.52733e-06
8.58542e-06
8.3699e-06
8.24696e-06
8.23312e-06
8.38568e-06
6.43866e-07
8.52481e-06
8.49811e-06
4.2657e-06
1.19156e-06
2.94631e-06
1.15717e-06
8.79138e-06
8.08704e-06
8.52529e-06
6.90531e-06
8.48585e-06
9.48952e-07
7.53666e-06
6.88618e-07
8.528e-06
8.30493e-06
8.51718e-06
9.07776e-07
8.28859e-06
8.2248e-06
8.5408e-06
7.7085e-06
8.31285e-06
7.83177e-06
8.25028e-06
8.50599e-06
8.53175e-06
8.37468e-06
8.32784e-06
8.51676e-06
8.3917e-06
7.10757e-06
3.77607e-06
8.24383e-06
3.02667e-06
8.48146e-06
8.4966e-06
8.20455e-06
5.72382e-06
8.1695e-06
2.38848e-06
8.51647e-06
7.81632e-06
1.43969e-06
5.98963e-07
8.24836e-06
8.25861e-06
2.57113e-06
8.35286e-06
8.12222e-06
8.69464e-06
8.32465e-06
8.28664e-06
5.45151e-06
8.34561e-06
7.91801e-06
8.34626e-06
8.22361e-06
8.52173e-06
8.24933e-06
7.96481e-06
8.25344e-06
4.43371e-06
2.83947e-06
8.25271e-06
8.53153e-06
8.44381e-06
4.05065e-07
8.46647e-06
2.8547e-06
8.42062e-06
8.51948e-06
1.17171e-06
8.516e-06
8.50589e-06
8.20877e-06
8.52561e-06
1.47368e-06
6.91378e-06
8.59387e-06
8.3915e-06
8.25929e-06
8.23894e-06
8.45865e-06
1.56791e-06
7.81309e-06
7.95423e-06
8.53642e-06
7.54603e-06
8.54908e-06
8.34876e-06
8.14933e-06
6.78321e-06
8.30063e-06
8.50401e-06
8.37716e-06
5.30168e-07
8.53617e-06
7.78594e-06
8.40527e-06
8.05356e-06
8.43169e-06
8.52316e-06
8.24828e-06
7.55802e-06
8.38794e-06
8.08525e-06
8.5334e-06
8.51038e-06
8.50052e-06
8.39481e-06
7.68106e-06
8.52825e-06
7.8868e-06
8.53178e-06
6.02226e-06
1.48945e-06
7.70429e-06
5.6268e-06
8.19076e-06
7.79324e-06
8.514e-06
8.5238e-06
8.29324e-06
8.26144e-06
8.26851e-06
6.66533e-06
6.86419e-06
8.37995e-06
8.5364e-06
8.13654e-06
7.2752e-06
8.54104e-06
8.23558e-06
8.25566e-06
8.22185e-06
8.49727e-06
8.26549e-06
2.31298e-06
8.52126e-06
7.25014e-06
1.87206e-06
8.71812e-06
1.75688e-06
8.43686e-06
8.31012e-06
8.34679e-06
8.46992e-06
8.23461e-06
5.62949e-06
8.38892e-06
6.37895e-06
8.51434e-06
8.51143e-06
8.42323e-06
1.66247e-06
8.38689e-06
4.83499e-06
8.44068e-06
8.39262e-06
6.60782e-06
8.30907e-06
4.34459e-06
7.56304e-06
8.26771e-06
8.37385e-06
8.52739e-06
8.22896e-07
9.24353e-07
8.33514e-06
8.25143e-06
8.40216e-06
8.3301e-06
4.52752e-06
8.17568e-06
1.7469e-07
5.63771e-07
8.34859e-06
8.5196e-06
8.43066e-06
7.42809e-06
8.42039e-06
8.54098e-06
2.2316e-06
8.44191e-06
8.60997e-06
8.52732e-06
1.25975e-06
8.36683e-06
8.34264e-06
1.34499e-06
8.48604e-06
8.44643e-06
8.25589e-06
7.44877e-06
8.49271e-06
5.17493e-07
8.40715e-06
8.52726e-06
8.463e-06
8.51677e-06
2.51214e-06
2.37268e-06
8.09473e-06
8.43771e-06
8.51945e-06
8.42025e-06
8.52801e-06
8.26803e-06
7.36058e-06
8.48864e-06
8.44501e-06
8.35479e-06
8.48762e-06
7.53203e-06
8.49711e-06
8.16003e-06
8.35667e-06
1.76325e-06
8.50629e-06
8.42861e-06
8.39907e-06
8.4854e-06
8.43773e-06
8.51631e-06
8.40002e-06
5.20431e-06
2.51136e-06
8.52676e-06
8.51893e-06
7.28922e-06
7.2282e-06
8.53619e-06
8.50081e-06
8.44316e-06
8.21369e-06
8.41028e-06
8.25799e-06
8.45906e-06
8.41287e-06
8.49224e-06
7.70927e-06
7.16875e-06
8.30439e-06
8.37546e-06
8.54256e-06
6.65507e-06
8.3851e-06
8.47642e-06
8.18498e-06
8.36449e-06
8.45495e-06
8.48188e-06
8.53116e-06
8.49872e-06
7.19203e-06
8.26273e-06
8.5224e-06
8.52237e-06
8.45414e-06
2.13187e-06
8.43065e-06
8.42261e-06
8.41305e-06
8.40469e-06
8.53277e-06
8.49718e-06
7.21783e-06
8.43113e-06
7.29218e-06
8.20347e-06
8.27683e-06
7.07414e-06
6.08155e-07
8.47189e-06
8.41897e-06
8.22195e-06
8.58146e-06
8.49247e-06
8.6824e-06
7.18723e-06
8.55789e-06
8.45075e-06
8.18447e-06
6.82393e-06
2.791e-06
8.60243e-06
9.00544e-07
8.55897e-06
8.52791e-06
8.52856e-06
8.5098e-06
7.18371e-06
8.5197e-06
8.53608e-06
8.50011e-06
7.12753e-06
8.4956e-06
7.80578e-06
8.52409e-06
6.75346e-06
7.92234e-06
8.41237e-06
8.03811e-06
6.69261e-06
8.41861e-06
6.60478e-06
8.70102e-06
8.52854e-06
8.53021e-06
8.53443e-06
7.28142e-06
8.71091e-06
8.519e-06
6.00551e-06
8.35983e-06
8.7087e-06
8.52644e-06
8.51578e-06
8.49368e-06
8.20496e-06
8.46602e-06
8.41542e-06
8.14552e-06
6.65375e-06
8.49304e-06
8.49863e-06
6.68249e-06
8.53189e-06
8.42791e-06
7.15806e-06
5.30919e-06
8.50612e-06
3.0706e-06
8.49427e-06
8.52817e-06
8.52241e-06
8.47659e-06
8.57237e-06
8.52809e-06
8.45713e-06
8.5266e-06
6.68346e-06
6.71548e-06
3.68237e-06
8.46125e-06
7.78593e-06
6.34363e-06
8.50053e-06
8.40023e-06
8.43117e-06
8.52459e-06
8.4827e-06
7.53566e-06
8.52854e-06
8.49818e-06
8.55338e-06
8.52349e-06
7.04281e-07
8.23776e-06
8.52493e-06
2.03804e-06
5.44185e-06
7.12261e-06
4.1599e-07
8.44398e-06
8.41149e-06
8.50389e-06
7.08261e-06
8.52576e-06
8.52409e-06
1.76974e-06
4.24565e-06
7.42143e-06
8.52637e-06
8.48365e-06
8.48326e-06
7.11738e-06
8.25362e-06
8.51398e-06
8.43309e-06
8.52399e-06
6.74667e-06
8.474e-06
7.05164e-06
5.53536e-06
8.33009e-06
8.24611e-06
1.34798e-06
8.45689e-06
6.16112e-06
8.52676e-06
7.05938e-06
8.4879e-06
8.51484e-06
2.3871e-06
8.51114e-06
6.52888e-06
8.49795e-06
8.50166e-06
8.32903e-06
8.52762e-06
4.37864e-06
8.52094e-06
8.50187e-06
8.51576e-06
6.47267e-07
8.25697e-06
8.48963e-06
8.48358e-06
8.20609e-06
8.40977e-06
6.28579e-06
7.79098e-07
8.52653e-06
8.39941e-06
8.52913e-06
8.51479e-06
8.50255e-06
8.46821e-06
8.32977e-06
7.23083e-06
8.43393e-06
7.38411e-06
8.51286e-06
4.23136e-06
8.45905e-06
8.38821e-06
6.43314e-06
8.15406e-06
8.56452e-06
8.24027e-06
8.37145e-06
8.54142e-06
8.52459e-06
8.50974e-06
6.52068e-06
8.53358e-06
8.5184e-06
8.517e-06
3.53657e-06
8.27793e-06
6.96872e-06
8.56897e-06
4.62152e-06
8.53137e-06
8.51637e-06
8.08645e-06
7.10089e-06
6.69012e-06
8.49095e-06
6.88157e-06
6.49232e-06
8.44011e-06
8.48919e-06
6.50035e-06
6.9746e-06
8.51979e-06
8.47169e-06
6.87766e-06
5.88355e-06
8.52614e-06
2.41786e-06
8.54227e-06
8.23451e-06
8.50513e-06
8.23583e-06
8.52345e-06
8.52695e-06
8.16029e-06
8.52579e-06
6.43247e-07
8.51543e-06
8.22487e-06
8.51927e-06
7.03844e-06
6.95306e-06
7.02109e-06
6.9737e-06
8.58345e-06
8.71664e-06
8.45284e-06
8.52825e-06
8.2265e-06
8.52087e-06
6.16866e-06
8.52342e-06
8.53042e-06
8.34314e-06
8.52966e-06
8.43415e-06
6.80509e-06
7.00544e-06
8.52342e-06
8.51416e-06
8.45792e-06
2.13816e-06
8.57411e-06
7.14385e-06
8.52801e-06
8.47699e-06
8.51628e-06
8.53043e-06
8.70047e-06
7.16241e-06
8.52463e-06
6.87887e-06
8.50497e-06
8.52502e-06
8.51714e-06
7.30596e-06
8.52277e-06
1.9442e-06
8.51944e-06
6.90856e-06
7.46374e-06
8.51407e-06
8.52277e-06
8.22395e-06
6.63304e-06
8.5791e-06
7.16385e-06
8.52327e-06
8.52391e-06
8.51086e-06
8.50036e-06
8.50703e-06
7.1099e-06
7.16505e-06
4.8144e-07
8.61338e-06
6.16955e-07
8.44733e-06
8.4342e-06
8.50034e-06
8.53274e-06
7.967e-06
8.18682e-06
8.46656e-06
8.52253e-06
8.47051e-06
7.98413e-06
7.00926e-06
7.32416e-06
6.41638e-06
8.51973e-06
8.49962e-06
8.52607e-06
8.48028e-06
8.49902e-06
8.69845e-06
6.98353e-06
8.48751e-06
8.52823e-06
8.52419e-06
8.5239e-06
8.41541e-06
8.44327e-06
8.39682e-06
8.4957e-06
7.63072e-06
7.01042e-06
8.49285e-06
6.85429e-06
8.52395e-06
8.55223e-06
8.49988e-06
8.51999e-06
4.56882e-06
8.46793e-06
6.42815e-06
8.25303e-06
6.92654e-06
8.5293e-06
8.52961e-06
6.84888e-06
7.95384e-06
8.27386e-06
6.99333e-06
8.37741e-06
8.5229e-06
8.53752e-06
6.5769e-06
6.92849e-06
8.69776e-06
8.47374e-06
7.16985e-06
8.50095e-06
8.50169e-06
8.77479e-06
7.53182e-06
8.49768e-06
8.5062e-06
8.52834e-06
8.49088e-06
8.50252e-06
8.29425e-06
8.51295e-06
8.52788e-06
8.52171e-06
8.50896e-06
8.58783e-06
8.50213e-06
2.65293e-06
8.52983e-06
6.92815e-06
8.51677e-06
6.99575e-06
8.50121e-06
8.52701e-06
8.71932e-06
8.53611e-06
8.59597e-06
8.52916e-06
8.50341e-06
8.74651e-06
8.50118e-06
8.50611e-06
8.54199e-06
8.52421e-06
8.49319e-06
8.19194e-06
6.75463e-06
8.51582e-06
8.52779e-06
8.52393e-06
8.47734e-06
8.50944e-07
6.44554e-06
8.52815e-06
8.58946e-06
8.5245e-06
8.52507e-06
8.52744e-06
8.52737e-06
6.82562e-06
6.83385e-06
8.5356e-06
7.88332e-06
5.41683e-06
8.52993e-06
6.32766e-06
8.48459e-06
8.49204e-06
6.74925e-06
8.69369e-06
8.53594e-06
8.49797e-06
8.52536e-06
8.50268e-06
8.52769e-06
8.5248e-06
8.52848e-06
8.53523e-06
8.2186e-06
8.4552e-06
6.84807e-06
6.94658e-06
8.52117e-06
8.52379e-06
8.5022e-06
6.27536e-06
6.75844e-06
8.46666e-06
8.52792e-06
8.52429e-06
6.35928e-06
8.49487e-06
8.67218e-06
8.5234e-06
6.92318e-06
8.01041e-06
8.53786e-06
8.53388e-06
6.57091e-07
8.52192e-06
8.53576e-06
8.52596e-06
8.52766e-06
8.5252e-06
6.36211e-06
8.52738e-06
6.85037e-06
8.68723e-06
8.5133e-06
8.66913e-06
8.51716e-06
8.4939e-06
8.53167e-06
8.54304e-06
8.52372e-06
8.41465e-06
8.51732e-06
8.53496e-06
8.50234e-06
6.90905e-06
7.04021e-06
8.5292e-06
8.54918e-06
8.50168e-06
8.52174e-06
8.52703e-06
8.52533e-06
8.53011e-06
8.52742e-06
8.28307e-06
8.52747e-06
8.38127e-06
7.91099e-06
8.53021e-06
8.241e-06
8.50757e-06
8.50498e-06
6.23786e-06
8.49426e-06
6.82457e-06
8.52155e-06
8.50207e-06
8.53126e-06
6.15056e-06
8.51385e-06
8.52573e-06
8.53083e-06
8.5033e-06
8.51095e-06
8.51608e-06
8.52853e-06
8.5034e-06
8.5027e-06
8.37776e-06
6.24268e-06
8.53274e-06
8.52683e-06
8.52487e-06
6.74256e-06
2.00405e-06
8.52892e-06
8.51135e-06
8.6458e-06
8.53247e-06
8.51551e-06
8.46908e-06
8.76883e-06
8.50883e-06
8.57193e-06
8.49454e-06
8.52295e-06
8.53057e-06
8.52113e-06
8.47192e-06
6.98321e-06
8.50259e-06
8.51084e-06
6.72751e-06
8.51294e-06
8.52558e-06
8.53936e-06
7.1445e-06
2.69738e-06
6.86728e-06
8.52454e-06
7.04085e-06
8.5227e-06
6.89915e-06
8.50263e-06
6.18731e-06
7.10797e-06
8.49143e-06
6.74085e-06
8.50446e-06
8.47357e-06
8.46762e-06
7.65062e-07
6.05888e-06
8.50924e-06
5.46569e-07
8.5019e-06
8.53215e-06
6.88391e-06
8.5013e-06
6.81542e-06
8.52009e-06
8.66669e-06
8.51773e-06
8.51989e-06
8.49591e-06
8.5036e-06
8.51214e-06
8.52669e-06
8.52124e-06
7.12372e-06
6.65189e-06
8.52061e-06
8.53387e-06
6.64996e-06
8.49441e-06
8.52578e-06
8.52889e-06
7.93476e-06
8.52946e-06
6.64206e-06
8.51776e-06
8.53772e-06
8.51874e-06
2.31143e-06
6.89538e-06
8.50145e-06
6.14796e-06
8.50077e-06
4.10277e-06
8.49876e-06
8.53991e-06
8.52545e-06
8.51842e-06
8.5081e-06
6.65121e-06
8.50491e-06
8.50368e-06
8.51394e-06
8.52932e-06
8.52987e-06
8.50552e-06
8.50378e-06
6.87483e-06
6.18934e-06
8.52574e-06
8.5175e-06
8.47719e-06
6.65181e-06
8.49795e-06
8.78e-06
8.66097e-06
8.51007e-06
8.51002e-06
8.49959e-06
8.51273e-06
6.63179e-06
6.79328e-06
8.50113e-06
8.26792e-06
8.49446e-06
8.49732e-06
8.52881e-06
8.5128e-06
8.51165e-06
8.52153e-06
8.51328e-06
6.27581e-06
8.52016e-06
8.49004e-06
6.62241e-06
8.49156e-06
8.53134e-06
8.50273e-06
8.51919e-06
8.51762e-06
6.63152e-06
8.52052e-06
8.49233e-06
6.10104e-06
8.51572e-06
8.51268e-06
6.71491e-06
8.49288e-06
6.65494e-06
8.51727e-06
8.52877e-06
8.50773e-06
6.74765e-06
8.52835e-06
8.52153e-06
8.50224e-06
8.46903e-06
6.33548e-06
6.63064e-06
8.50961e-06
8.49683e-06
8.53093e-06
8.50925e-06
8.50492e-06
8.53752e-06
8.54634e-06
8.50129e-06
8.4891e-06
6.69896e-06
8.50396e-06
8.5029e-06
8.52965e-06
8.4683e-06
8.50549e-06
6.72555e-06
6.54445e-06
8.45618e-06
6.75731e-06
8.49353e-06
8.52118e-06
8.49956e-06
8.48269e-06
8.50568e-06
6.53706e-06
8.53178e-06
6.84571e-06
8.52374e-06
6.02144e-06
8.50372e-06
8.25339e-06
8.50197e-06
8.5069e-06
8.50201e-06
8.50086e-06
8.5246e-06
8.50566e-06
8.49512e-06
8.50909e-06
6.55365e-06
8.81842e-06
8.5306e-06
8.48879e-06
8.53681e-06
8.5039e-06
8.51066e-06
8.4828e-06
8.51414e-06
8.51122e-06
8.53667e-06
8.5013e-06
6.54915e-06
6.56218e-06
6.38491e-06
2.85055e-06
8.50955e-06
8.50774e-06
8.49165e-06
6.61848e-06
8.49288e-06
8.4735e-06
6.05664e-06
6.77987e-06
6.71727e-06
6.64366e-06
8.51945e-06
6.84193e-06
8.50259e-06
2.32486e-06
8.50372e-06
8.50285e-06
8.47419e-06
8.51088e-06
1.43626e-06
8.50471e-06
8.48232e-06
8.47763e-06
8.50588e-06
8.50903e-06
8.5072e-06
6.57025e-06
8.47572e-06
8.49582e-06
5.5404e-07
8.5073e-06
8.50179e-06
8.52441e-06
8.5246e-06
8.52214e-06
8.48161e-06
8.51495e-06
8.52203e-06
8.47302e-06
8.52006e-06
8.4975e-06
8.52533e-06
8.51186e-06
8.46465e-06
6.55773e-06
8.487e-06
8.50589e-06
8.51379e-06
8.51282e-06
8.51159e-06
8.51135e-06
8.49725e-06
8.5254e-06
6.45936e-06
8.48276e-06
8.52725e-06
8.50186e-06
6.36501e-06
8.53117e-06
8.47939e-06
6.4431e-06
6.443e-06
8.50814e-06
6.47039e-06
8.49866e-06
6.69096e-06
8.03048e-06
5.9654e-06
6.45974e-06
8.49494e-06
1.56425e-06
8.49937e-06
8.53104e-06
6.47783e-06
8.50999e-06
6.27188e-06
8.47755e-06
8.53116e-06
8.51901e-06
8.48221e-06
6.5368e-06
6.60634e-06
8.53032e-06
8.50402e-06
6.5361e-06
6.47237e-06
6.51429e-06
6.48593e-06
8.51037e-06
6.55584e-06
8.5069e-06
6.45763e-06
8.50498e-06
8.50901e-06
6.25534e-06
6.52764e-06
6.52411e-06
6.44575e-06
8.50856e-06
8.51026e-06
8.51367e-06
6.09728e-06
8.50813e-06
8.48519e-06
2.31028e-06
8.4306e-06
8.49313e-06
5.96769e-06
5.87504e-06
8.51125e-06
6.25288e-06
6.3672e-06
8.00113e-06
8.50059e-06
8.51564e-06
8.54002e-06
6.55718e-06
6.49433e-06
6.3699e-06
6.43893e-06
8.4986e-06
8.49639e-06
8.86317e-06
6.45621e-06
6.34938e-06
8.49332e-06
8.51558e-06
8.51712e-06
8.51845e-06
8.51449e-06
6.38274e-06
8.49992e-06
6.58238e-06
8.51361e-06
6.46603e-06
6.43076e-06
8.52016e-06
8.24098e-06
8.52037e-06
8.89146e-06
8.50097e-06
8.51983e-06
8.51001e-06
8.51226e-06
6.42213e-06
6.59163e-06
8.50741e-06
8.51914e-06
6.3981e-06
6.52346e-06
8.51784e-06
6.23831e-06
6.25583e-06
8.51745e-06
6.27566e-06
6.29236e-06
6.29416e-06
8.49599e-06
8.50464e-06
8.50336e-06
6.27259e-06
6.68002e-06
8.49582e-06
6.34913e-06
6.24535e-06
6.29292e-06
8.52761e-06
8.49383e-06
6.33771e-06
8.49973e-06
5.79876e-06
8.49599e-06
8.63621e-06
8.51507e-06
6.17944e-06
6.16237e-06
6.23684e-06
8.52523e-06
6.18443e-06
6.32955e-06
6.36682e-06
5.82678e-06
6.33909e-06
5.80672e-06
5.70347e-06
6.24491e-06
6.3827e-06
5.73494e-06
6.39051e-06
6.19309e-06
6.46113e-06
8.48964e-06
6.20286e-06
6.10288e-06
6.15171e-06
6.09324e-06
5.63152e-06
8.50037e-06
6.01305e-06
6.63449e-06
6.15215e-06
6.06864e-06
8.5276e-06
6.20139e-06
6.19473e-06
8.47467e-06
6.11602e-06
8.48318e-06
8.51367e-06
5.69495e-06
5.60541e-06
6.10708e-06
6.27309e-06
6.0206e-06
6.17861e-06
6.11278e-06
8.5178e-06
5.51868e-06
5.97509e-06
6.00217e-06
8.50837e-06
6.20548e-06
5.39476e-06
6.37525e-06
6.05925e-06
6.02241e-06
6.14377e-06
5.4282e-06
5.78532e-06
5.90518e-06
5.81332e-06
5.91075e-06
5.72127e-06
5.8814e-06
5.38562e-06
5.35551e-06
5.70794e-06
8.51828e-06
5.96639e-06
5.93119e-06
5.9738e-06
6.02673e-06
5.80174e-06
5.31813e-06
5.28732e-06
6.08423e-06
5.95738e-06
5.30191e-06
5.82875e-06
5.92175e-06
5.81854e-06
5.89009e-06
5.87339e-06
5.88817e-06
8.52593e-06
5.78769e-06
6.11441e-06
5.54455e-06
5.78604e-06
5.8453e-06
5.91328e-06
5.89626e-06
5.93582e-06
5.22047e-06
6.00241e-06
5.45808e-06
5.92692e-06
5.69387e-06
5.96196e-06
5.98113e-06
5.8697e-06
5.68571e-06
5.84131e-06
5.59799e-06
5.41022e-06
5.20671e-06
5.77537e-06
5.72533e-06
5.77041e-06
5.78026e-06
5.99048e-06
5.91921e-06
5.68159e-06
5.86387e-06
5.73301e-06
5.92215e-06
5.8243e-06
5.12838e-06
5.81767e-06
5.79946e-06
8.52678e-06
5.62813e-06
5.60009e-06
5.63032e-06
5.73495e-06
5.69184e-06
5.6872e-06
5.24912e-06
5.84193e-06
5.31631e-06
5.13001e-06
5.04435e-06
8.47576e-06
8.51868e-06
5.03648e-06
5.63974e-06
5.64661e-06
5.70928e-06
5.50634e-06
5.53336e-06
5.61887e-06
5.48487e-06
5.74478e-06
5.63861e-06
5.5044e-06
5.63816e-06
5.64473e-06
5.61392e-06
5.59398e-06
5.55321e-06
6.10398e-06
5.09899e-06
5.41255e-06
5.58332e-06
5.01374e-06
4.94679e-06
5.43417e-06
5.57016e-06
5.55448e-06
5.73183e-06
5.64121e-06
5.67681e-06
5.52864e-06
5.23838e-06
4.95369e-06
5.31883e-06
5.50075e-06
5.48995e-06
4.85748e-06
5.3352e-06
5.15303e-06
5.46434e-06
5.40751e-06
5.39424e-06
5.39206e-06
5.34325e-06
5.40085e-06
5.25523e-06
5.30678e-06
5.54457e-06
5.48244e-06
5.33236e-06
5.22515e-06
4.78741e-06
5.44068e-06
5.23975e-06
5.57243e-06
5.18083e-06
5.39643e-06
5.30301e-06
5.34792e-06
5.43824e-06
5.2128e-06
5.3739e-06
5.28985e-06
5.34652e-06
5.17103e-06
8.97216e-07
4.76963e-06
5.35785e-06
5.31431e-06
5.30385e-06
4.87715e-06
5.21197e-06
4.61628e-06
5.44034e-06
4.70091e-06
9.56367e-07
5.13136e-06
5.29842e-06
4.68626e-06
5.26437e-06
5.14684e-06
5.12801e-06
5.28334e-06
5.57525e-06
5.22101e-06
5.20962e-06
4.00716e-06
5.30189e-06
5.07339e-06
5.14408e-06
4.61493e-06
5.12777e-06
5.2222e-06
5.25344e-06
5.03756e-06
5.05525e-06
5.08751e-06
4.03305e-06
5.03422e-06
4.77451e-06
4.13603e-06
4.27572e-06
5.16506e-06
5.19251e-06
5.25777e-06
4.94371e-06
5.116e-06
4.75054e-06
5.02255e-06
5.0345e-06
5.07753e-06
4.78155e-06
4.96422e-06
5.27409e-06
3.8182e-06
4.32742e-06
4.54885e-06
4.87299e-06
5.10142e-06
5.20779e-06
4.86222e-06
5.03157e-06
4.93999e-06
4.84611e-06
5.07816e-06
4.98156e-06
4.93986e-06
4.84996e-06
5.42667e-06
4.38352e-06
4.83761e-06
4.88841e-06
4.84512e-06
3.85653e-06
4.94107e-06
4.92914e-06
4.99398e-06
4.42237e-06
5.03217e-06
5.01047e-06
4.37824e-06
4.95608e-06
4.51171e-06
4.86048e-06
4.84757e-06
4.46583e-06
4.59733e-06
5.0261e-06
4.88279e-06
4.97611e-06
4.75632e-06
4.56781e-06
4.9193e-06
4.30715e-06
4.75244e-06
4.9507e-06
4.84731e-06
4.71777e-06
4.89796e-06
5.06479e-06
4.47379e-06
4.93551e-06
4.9313e-06
4.62076e-06
4.83552e-06
4.74211e-06
4.29083e-06
4.79439e-06
4.66248e-06
4.61013e-06
4.75414e-06
4.79714e-06
4.98832e-06
4.23875e-06
4.78818e-06
4.78268e-06
4.70129e-06
4.8279e-06
4.93934e-06
4.19644e-06
4.76804e-06
4.33265e-06
4.76597e-06
4.00238e-06
4.19473e-06
3.9117e-06
4.53198e-06
4.70355e-06
4.56419e-06
4.56871e-06
4.65814e-06
4.4064e-06
4.69087e-06
4.33534e-06
4.56112e-06
4.66089e-06
4.78525e-06
4.64876e-06
4.75406e-06
4.69041e-06
4.73627e-06
4.56756e-06
4.80772e-06
4.84876e-06
4.03498e-06
3.81856e-06
4.52724e-06
4.00811e-06
4.48597e-06
4.47504e-06
4.35644e-06
4.59396e-06
4.80755e-06
4.64465e-06
4.12567e-06
4.5552e-06
4.46184e-06
4.10075e-06
4.6627e-06
3.93935e-06
4.47422e-06
4.51676e-06
4.71422e-06
3.93468e-06
4.46241e-06
4.57988e-06
4.1813e-06
4.50277e-06
3.91943e-06
4.38127e-06
4.55308e-06
4.67406e-06
4.37599e-06
3.91611e-06
4.45154e-06
4.68358e-06
4.28035e-06
4.38733e-06
4.90052e-06
4.62871e-06
3.7935e-06
3.8513e-06
4.48264e-06
4.3808e-06
4.28755e-06
4.36855e-06
4.08542e-06
4.43366e-06
3.82007e-06
4.47024e-06
4.4609e-06
4.44456e-06
4.41832e-06
4.54501e-06
4.46305e-06
4.12258e-06
3.82876e-06
4.2873e-06
4.46206e-06
4.34546e-06
4.44647e-06
4.48264e-06
4.25593e-06
4.37078e-06
3.71203e-06
4.1937e-06
4.38823e-06
4.27505e-06
4.18764e-06
4.18175e-06
3.72224e-06
4.04938e-06
4.29474e-06
4.39185e-06
4.19391e-06
4.23646e-06
4.20561e-06
4.06024e-06
4.20963e-06
4.28182e-06
4.39867e-06
4.27951e-06
3.62593e-06
4.27243e-06
4.14286e-06
4.09992e-06
4.09432e-06
3.60018e-06
4.13463e-06
4.10069e-06
4.08851e-06
3.61675e-06
4.00597e-06
4.15921e-06
3.81686e-06
3.71678e-06
3.59713e-06
4.21259e-06
3.78529e-06
4.00731e-06
3.72336e-06
4.18773e-06
4.29328e-06
4.04634e-06
4.08202e-06
3.6789e-06
3.91137e-06
3.5365e-06
4.00046e-06
4.1441e-06
3.92394e-06
3.80593e-06
4.24724e-06
3.35169e-06
3.97109e-06
4.0955e-06
3.96699e-06
3.96642e-06
3.98946e-06
3.99499e-06
3.90166e-06
3.44649e-06
3.78839e-06
4.13253e-06
3.91386e-06
4.15384e-06
3.90611e-06
3.87408e-06
3.51469e-06
4.00812e-06
3.82899e-06
3.3571e-06
3.44043e-06
4.20356e-06
4.34021e-06
3.82041e-06
3.98088e-06
3.886e-06
4.29796e-06
3.26694e-06
3.79245e-06
3.95161e-06
3.91309e-06
3.92251e-06
3.95599e-06
4.0537e-06
3.89989e-06
3.27446e-06
3.81093e-06
3.73496e-06
3.34081e-06
3.82948e-06
3.95184e-06
3.92644e-06
3.26368e-06
3.7742e-06
3.72679e-06
3.62287e-06
3.7694e-06
3.71509e-06
4.0131e-06
3.84483e-06
3.70163e-06
3.41075e-06
3.80756e-06
3.67624e-06
3.17745e-06
3.89033e-06
3.88665e-06
3.64068e-06
3.88432e-06
3.89446e-06
3.71707e-06
3.14108e-06
3.80835e-06
3.69886e-06
3.25189e-06
3.68708e-06
3.71218e-06
3.62947e-06
3.7351e-06
3.63322e-06
3.66659e-06
3.62227e-06
3.68585e-06
3.24867e-06
3.16186e-06
3.53964e-06
3.06413e-06
3.76679e-06
3.35271e-06
3.25966e-06
3.23194e-06
3.54655e-06
3.15906e-06
3.51511e-06
3.56363e-06
3.65789e-06
3.7293e-06
3.06846e-06
3.44614e-06
3.52919e-06
3.2511e-06
3.7663e-06
3.69161e-06
3.6309e-06
3.17659e-06
3.53508e-06
3.45263e-06
3.46393e-06
3.49058e-06
3.5246e-06
3.5312e-06
3.57586e-06
3.35523e-06
2.96902e-06
3.70607e-06
3.14965e-06
3.43584e-06
3.04775e-06
3.26668e-06
3.35885e-06
3.36368e-06
3.40328e-06
3.49113e-06
3.52151e-06
3.33656e-06
2.96606e-06
3.63026e-06
3.36567e-06
3.34208e-06
2.98049e-06
3.32115e-06
2.57437e-06
3.39766e-06
3.07346e-06
3.24288e-06
3.1933e-06
2.86588e-06
3.49987e-06
3.53384e-06
3.26474e-06
3.06201e-06
3.34164e-06
3.30472e-06
3.40695e-06
3.34761e-06
3.36725e-06
2.66994e-06
3.26815e-06
3.31375e-06
3.13509e-06
2.77057e-06
2.76282e-06
3.17075e-06
3.32232e-06
3.15196e-06
3.12624e-06
3.22056e-06
3.29337e-06
3.1605e-06
3.24662e-06
3.39134e-06