/*--------------------------------*- C++ -*----------------------------------*\
  =========                 |
  \\      /  F ield         | OpenFOAM: The Open Source CFD Toolbox
   \\    /   O peration     | Website:  https://openfoam.org
    \\  /    A nd           | Version:  8
     \\/     M anipulation  |
\*---------------------------------------------------------------------------*/
FoamFile
{
    version     2.0;
    format      ascii;
    class       volScalarField;
    location    "5";
    object      p;
}
// * * * * * * * * * * * * * * * * * * * * * * * * * * * * * * * * * * * * * //

dimensions      [0 2 -2 0 0 0 0];

internalField   nonuniform List<scalar> 
5101
(
8.24757e-06
9.13573e-06
8.64656e-06
3.18891e-06
9.10379e-06
2.75487e-06
1.41955e-06
1.14247e-05
1.06285e-06
3.114e-06
8.46562e-06
2.38699e-06
7.3847e-07
1.74563e-06
6.20483e-06
5.93303e-06
4.89425e-06
3.57576e-06
6.94629e-06
1.07441e-05
7.42649e-06
3.12217e-06
5.83407e-06
3.66769e-06
7.11799e-06
4.69513e-06
6.41106e-06
6.76162e-06
8.57108e-06
8.27328e-06
7.27647e-06
6.01624e-06
5.63833e-06
1.09624e-05
7.54039e-06
7.78209e-06
8.11366e-06
7.76406e-06
8.80919e-06
1.11787e-05
1.15587e-05
1.51015e-06
6.76285e-06
5.7752e-06
8.73413e-06
5.9387e-06
8.91717e-06
3.42749e-06
7.94635e-06
6.94478e-06
9.16634e-06
7.90266e-06
7.56654e-06
8.92316e-07
1.14508e-05
8.64732e-06
8.01288e-06
1.09671e-05
1.13084e-05
4.98863e-06
1.22801e-06
6.51005e-06
1.14718e-05
8.09252e-06
6.58256e-06
9.26648e-06
1.55214e-06
4.72146e-06
7.36562e-06
1.15575e-05
2.93255e-06
1.06488e-05
1.14334e-05
6.32911e-06
5.39397e-06
1.09335e-05
3.55192e-06
1.08829e-05
1.11707e-05
2.56494e-06
1.14522e-05
1.95252e-06
3.60052e-06
7.45558e-06
1.14434e-05
8.08109e-06
9.10441e-06
3.02777e-06
9.46993e-06
5.61482e-06
1.08262e-05
5.32958e-07
7.90102e-06
7.50572e-06
8.2809e-06
8.36884e-06
1.08773e-05
9.29902e-06
1.1359e-05
9.71644e-06
7.12823e-06
1.14283e-05
2.08911e-06
9.7146e-06
5.73471e-06
1.08685e-05
7.79762e-06
9.50322e-06
1.12431e-05
4.22958e-06
2.00087e-06
2.19264e-06
8.08383e-06
9.1665e-06
4.28223e-06
1.08816e-05
1.09408e-05
4.2759e-06
6.02967e-06
5.22931e-06
2.28058e-06
3.9682e-06
1.0732e-05
9.72944e-06
5.17658e-06
1.14707e-05
6.28943e-06
8.78053e-06
1.14426e-05
2.78206e-06
8.4698e-06
8.05571e-06
9.3562e-06
1.14603e-05
8.37963e-06
8.74289e-06
1.12055e-05
7.92472e-06
1.03498e-06
1.11734e-05
1.08074e-05
9.94928e-06
1.12004e-05
7.63569e-06
4.76567e-06
5.01558e-06
1.12042e-05
7.36824e-06
9.73711e-06
1.09878e-05
7.56743e-06
1.15894e-05
6.68803e-06
4.09121e-06
9.54331e-06
7.56028e-06
3.63401e-06
1.09007e-05
7.2226e-06
7.41195e-06
6.93133e-07
1.08666e-05
4.09139e-06
8.83088e-06
9.53181e-06
8.65952e-06
6.58015e-06
8.08485e-06
3.16855e-06
1.10189e-05
4.20505e-06
6.85339e-06
7.13614e-06
8.99196e-06
9.51039e-06
3.96498e-06
2.47029e-06
1.1522e-05
5.667e-06
8.76468e-06
9.17248e-06
4.53786e-06
6.80913e-06
1.06617e-05
1.09231e-05
8.23097e-06
1.13748e-05
6.44911e-06
7.58569e-06
7.98643e-06
9.60948e-06
7.52212e-06
1.09942e-05
1.10032e-05
4.94666e-06
8.52016e-06
1.15356e-05
9.57471e-06
1.80474e-06
1.99498e-06
6.21057e-06
9.53008e-06
9.1445e-06
1.09373e-05
1.13674e-05
8.52403e-06
1.01732e-05
3.81169e-06
1.15182e-05
2.65627e-06
9.37474e-06
6.81178e-07
5.42998e-06
1.11191e-05
1.89068e-06
1.22504e-06
8.76996e-06
8.2346e-06
2.18344e-06
4.15614e-06
9.42819e-07
3.94635e-06
1.02804e-05
9.38616e-06
9.92236e-06
1.16746e-05
3.9044e-06
9.3249e-06
2.84175e-06
1.14687e-05
1.07358e-05
1.00769e-05
9.46458e-06
7.20054e-06
1.04971e-05
1.14155e-05
1.1467e-05
4.15467e-06
7.60694e-06
9.17944e-06
3.0247e-06
1.14669e-05
1.14653e-05
8.57061e-06
7.20337e-06
9.08115e-06
7.60153e-06
1.08393e-05
8.96846e-06
7.69604e-06
8.88504e-06
2.54353e-06
2.09478e-06
7.62614e-06
4.24951e-06
5.70271e-06
5.68478e-06
6.89325e-06
4.44305e-06
1.12483e-05
5.49197e-06
5.12226e-06
5.9239e-06
3.99242e-06
3.9773e-06
1.10312e-05
8.6265e-06
3.29547e-06
1.67223e-06
1.08344e-05
5.08507e-06
5.08682e-06
1.081e-05
5.10402e-06
1.12889e-05
1.06642e-05
1.11652e-05
1.09618e-05
3.20781e-06
3.38743e-06
6.6628e-06
7.51411e-06
6.01934e-06
9.18317e-06
1.08446e-05
7.23433e-06
7.75977e-06
6.943e-06
9.26147e-06
1.02488e-05
4.97701e-06
1.07022e-05
7.37703e-06
1.11349e-05
5.83814e-06
1.14661e-05
3.14481e-06
7.77812e-06
1.05237e-05
7.98004e-06
1.12036e-05
1.06409e-05
8.67708e-06
5.98151e-07
5.9348e-08
9.64163e-06
6.964e-06
1.07102e-05
3.21121e-06
8.57265e-06
3.71543e-06
7.59779e-07
8.41771e-06
8.34671e-06
6.76263e-06
1.14653e-05
4.25756e-06
1.04675e-05
7.11934e-06
1.10919e-05
9.53956e-06
1.02776e-05
1.0975e-05
5.25871e-06
2.846e-06
8.96682e-06
1.12406e-05
9.35953e-06
1.0501e-05
3.57057e-06
8.67271e-06
2.47691e-06
1.12313e-05
8.8484e-06
3.75407e-06
1.14669e-05
8.18501e-06
8.63492e-06
8.41594e-06
8.42641e-06
9.50535e-06
2.84755e-06
4.1139e-06
8.5917e-07
2.37487e-06
7.76101e-06
7.35485e-06
7.29882e-06
6.67455e-06
1.12426e-05
1.11968e-05
5.8774e-06
7.11964e-06
3.78448e-06
9.75786e-07
1.09077e-05
9.95831e-06
3.64088e-06
9.78691e-06
4.41476e-07
1.14394e-05
3.08741e-06
1.15025e-05
8.65573e-06
7.95267e-06
7.1073e-06
9.73759e-06
1.65535e-06
1.09039e-05
8.69348e-06
1.08224e-05
1.04382e-05
9.55382e-06
8.27223e-06
9.13255e-06
8.94715e-06
1.05056e-05
1.22905e-06
4.93304e-06
4.25189e-06
8.14757e-06
6.93614e-06
8.82151e-06
6.93175e-06
3.16196e-06
1.58294e-06
4.5895e-06
3.90797e-06
8.48184e-06
2.80254e-06
7.26146e-06
7.28101e-06
1.91677e-06
3.56724e-06
2.44775e-06
3.22611e-06
2.88577e-06
7.68962e-06
1.13878e-05
4.40759e-06
7.38981e-06
4.35772e-06
7.89461e-06
4.07116e-06
8.9647e-06
7.0648e-06
6.85795e-06
1.09813e-05
6.48915e-06
1.14784e-05
6.90182e-06
7.71975e-06
1.1291e-05
6.6825e-06
8.3441e-06
6.99244e-06
9.34667e-06
7.03089e-06
1.14516e-05
4.01479e-06
3.99513e-06
6.39417e-06
2.34432e-06
-6.21498e-08
8.40547e-06
3.39716e-06
1.14652e-05
4.60056e-06
9.36436e-06
8.59194e-06
5.2306e-06
9.34883e-06
4.12513e-07
1.00399e-05
1.119e-05
4.01992e-06
1.10083e-05
4.31277e-06
4.30023e-06
7.45449e-07
4.26326e-06
4.25359e-06
7.01892e-06
4.6129e-06
4.81196e-06
5.28809e-06
7.2622e-06
8.60089e-06
3.53433e-06
7.79417e-06
8.48834e-06
6.59288e-06
6.57884e-06
6.53562e-06
6.52172e-06
1.30988e-06
1.11316e-05
9.9026e-06
1.04408e-05
2.56214e-06
9.17407e-06
8.3006e-06
9.76375e-06
4.353e-06
1.12905e-05
6.22503e-06
7.31663e-06
2.09447e-06
8.37626e-06
8.49791e-06
5.33565e-06
5.32038e-06
1.11273e-05
8.99885e-06
8.13184e-06
1.13059e-05
1.14944e-05
1.11934e-05
9.08675e-06
7.23386e-06
1.98921e-06
2.74775e-06
1.14998e-05
1.11493e-05
8.3076e-06
8.90268e-06
7.7337e-06
1.02638e-05
4.95014e-06
6.12517e-06
7.59059e-06
1.08027e-05
3.75842e-06
3.17809e-07
7.12558e-06
8.26344e-06
4.71216e-06
5.57387e-06
1.05814e-05
2.95946e-06
1.1418e-05
6.58822e-06
9.46513e-06
9.15923e-06
9.05484e-06
3.80618e-06
1.12483e-05
8.98269e-06
3.91504e-06
4.32772e-06
1.09153e-05
3.54521e-06
1.05779e-06
8.76433e-06
2.19845e-06
2.69431e-06
3.20353e-06
1.56754e-06
3.72308e-06
5.64293e-06
5.63477e-06
9.73433e-06
8.57843e-06
5.43651e-06
9.3682e-07
8.99582e-06
9.18999e-06
7.38157e-06
1.14199e-05
1.07238e-05
6.36531e-06
6.87358e-06
2.93195e-06
1.14512e-06
5.65166e-06
4.7149e-06
4.71059e-06
1.10312e-05
4.98815e-06
1.13929e-05
2.29716e-06
4.92017e-06
8.18326e-06
1.90717e-06
2.45027e-06
2.98594e-06
3.51832e-06
4.04433e-06
8.41736e-06
7.35549e-06
7.89071e-06
6.86463e-06
6.31933e-06
3.51993e-06
4.04066e-06
6.84772e-06
7.21075e-06
4.26987e-06
4.23089e-06
5.18197e-06
6.62824e-06
1.05153e-05
1.13952e-05
5.76022e-06
9.95976e-06
5.95074e-06
5.61727e-06
1.11041e-05
4.48928e-06
5.31362e-06
7.21882e-06
5.24715e-07
6.80422e-06
7.94583e-06
1.05173e-05
8.88641e-06
3.21639e-06
8.32502e-07
1.08851e-05
9.83028e-06
1.12638e-05
9.17743e-06
4.15526e-06
8.84642e-06
5.30242e-06
1.0489e-05
1.14985e-05
9.04429e-06
9.46616e-06
1.48012e-06
4.23874e-06
7.09801e-06
5.87803e-06
5.89809e-06
7.81122e-06
2.34712e-06
5.82776e-06
5.855e-06
1.97817e-06
1.08325e-05
3.67973e-06
1.09672e-05
7.41652e-06
1.09796e-05
3.11574e-06
6.45452e-06
8.63386e-06
6.59424e-06
6.23885e-06
3.98846e-06
3.99779e-06
8.80908e-06
9.05272e-06
1.14487e-05
1.14642e-05
1.00003e-05
1.12236e-05
1.14714e-05
7.30527e-06
9.38011e-06
5.48273e-06
1.14705e-05
7.76911e-06
1.09895e-05
4.18823e-06
8.44117e-06
1.0367e-05
7.05585e-06
1.03856e-05
6.51259e-06
8.52998e-06
8.37416e-06
8.85238e-06
5.71969e-06
8.86072e-06
1.10342e-05
5.30016e-06
5.2875e-06
4.0541e-06
1.90444e-06
3.53289e-06
3.01715e-06
2.49965e-06
1.36583e-06
1.07622e-05
5.081e-06
6.17737e-06
9.44672e-06
6.50195e-06
3.73452e-06
9.53041e-06
1.14894e-05
7.0357e-06
3.47853e-06
1.14642e-05
7.69432e-06
9.12599e-06
7.34058e-07
8.72862e-06
1.14365e-05
1.10046e-05
3.29805e-06
5.46016e-06
5.45443e-06
5.76777e-06
3.89954e-06
1.74299e-06
6.40213e-06
5.67007e-06
7.44743e-06
9.97973e-06
9.47103e-06
5.95321e-06
7.04579e-06
5.74212e-06
1.21666e-06
3.3749e-06
2.86181e-06
2.36225e-06
6.83323e-06
9.1575e-06
8.81438e-06
7.5816e-06
1.10745e-05
1.05251e-05
2.49071e-06
1.12818e-05
1.14738e-05
6.74372e-06
3.62059e-06
4.75426e-06
5.80423e-06
6.08721e-06
9.06756e-06
3.05217e-06
7.88166e-06
1.20672e-06
9.15394e-06
8.66719e-07
2.72274e-06
9.56865e-06
4.39673e-06
2.75546e-06
1.10442e-05
7.81747e-06
6.28707e-06
1.13277e-06
3.6344e-07
6.38485e-06
2.73896e-06
8.62742e-06
1.14697e-05
9.18703e-06
5.51361e-06
8.63829e-06
1.05548e-05
7.89343e-06
8.04752e-06
1.12637e-06
3.92343e-06
7.29001e-06
6.00644e-06
5.99607e-06
1.83269e-06
6.81633e-06
1.07342e-05
1.33166e-06
4.09212e-06
7.25305e-06
7.97257e-06
2.1971e-06
6.04659e-06
6.06628e-06
6.28204e-06
2.53799e-06
7.29494e-06
8.46062e-06
6.9451e-06
8.77285e-06
6.69437e-06
1.13725e-05
1.09322e-05
5.71813e-06
7.41357e-06
7.81899e-06
1.32948e-06
8.34016e-06
1.03082e-05
7.98119e-06
5.53775e-06
7.99853e-06
1.14883e-05
6.58126e-06
8.65738e-07
5.86967e-06
8.09823e-06
6.87092e-06
6.32479e-06
1.06289e-05
6.11684e-06
8.47839e-06
9.0023e-06
1.10965e-05
5.64575e-06
8.88186e-06
1.0388e-05
8.18372e-06
7.9398e-06
1.08735e-05
8.82401e-06
9.65006e-06
3.95806e-06
9.69518e-06
5.90606e-06
8.55256e-06
3.97546e-06
9.55459e-06
1.61686e-06
1.11855e-05
4.08959e-06
1.09248e-05
7.40603e-07
1.12582e-05
4.42678e-06
6.38609e-06
8.15148e-06
4.58928e-06
1.1216e-05
1.13938e-05
1.01659e-05
1.02236e-05
7.09942e-06
1.35881e-06
7.00783e-06
4.75102e-06
7.48294e-06
7.6611e-06
4.19362e-06
5.53265e-06
7.3362e-06
7.36112e-06
9.47811e-06
6.94691e-06
1.14462e-05
1.10892e-05
1.17219e-06
3.92231e-06
7.43307e-06
8.14358e-06
2.02377e-06
6.22077e-06
6.24138e-06
6.17378e-06
6.1842e-06
1.65693e-06
8.68986e-06
1.14744e-05
1.12858e-05
4.43635e-06
8.12385e-06
1.14618e-05
1.11795e-05
1.14652e-05
9.60058e-06
3.90671e-06
7.86392e-07
8.05795e-07
6.99311e-06
7.04094e-07
7.18636e-07
3.36918e-06
7.96824e-07
7.79666e-06
1.00065e-06
1.79688e-06
7.27855e-06
4.57957e-06
6.01284e-06
1.35597e-06
2.25043e-06
2.2305e-06
1.37755e-06
2.26434e-06
7.99013e-06
5.79102e-06
1.30915e-06
6.03666e-06
4.06058e-06
4.58782e-06
2.17571e-06
6.0818e-06
6.05956e-06
5.31739e-06
5.19902e-06
1.13121e-05
1.54184e-06
1.55653e-06
2.09929e-06
1.7224e-06
1.73409e-06
4.24086e-06
6.2873e-06
9.06504e-06
9.01766e-06
3.06364e-06
6.09364e-06
2.07619e-06
8.2581e-06
1.17993e-06
7.67176e-06
9.69467e-07
8.89965e-06
9.25908e-06
1.10351e-05
1.14387e-05
4.87515e-06
1.64847e-06
8.97997e-06
7.22426e-06
1.11777e-05
7.71128e-06
2.90544e-06
8.21001e-06
6.57034e-06
1.07481e-05
8.62672e-07
1.00735e-05
5.43027e-06
4.66241e-06
9.74701e-06
8.76452e-06
3.99912e-06
5.10896e-06
1.10156e-05
8.57494e-06
3.66442e-06
1.15461e-05
4.96369e-06
4.94989e-06
1.08768e-05
2.42613e-06
2.43749e-06
2.41054e-06
7.83805e-06
1.01508e-05
5.41571e-06
8.45359e-06
2.99167e-06
6.74757e-06
9.06154e-06
7.48862e-06
8.71297e-06
1.13802e-05
1.07178e-05
7.97149e-06
6.86781e-06
9.24133e-06
2.95404e-06
8.93635e-06
1.69003e-06
1.03615e-05
3.15255e-06
8.76821e-06
6.6879e-06
3.68927e-06
1.35674e-06
1.06363e-05
2.45753e-06
1.15094e-05
8.94395e-06
1.03886e-06
9.01679e-06
1.1471e-05
3.69453e-06
3.16368e-06
2.62957e-06
2.08969e-06
6.13004e-06
4.22518e-06
4.22282e-06
6.69341e-06
6.12203e-06
1.14736e-05
1.15023e-05
3.98274e-06
1.06797e-05
6.59034e-06
1.10356e-05
2.26232e-06
2.37433e-06
1.00922e-06
9.16679e-06
4.12666e-06
4.12512e-06
1.01504e-05
8.56176e-06
3.35734e-06
1.53863e-06
1.50684e-06
8.65156e-06
7.89642e-07
7.69872e-07
1.11857e-05
6.67318e-06
8.29592e-06
9.59711e-06
5.89996e-06
1.51443e-06
2.38493e-06
7.63135e-06
2.41957e-06
2.39108e-06
9.96472e-06
1.07777e-05
9.28463e-06
7.64838e-06
9.50662e-06
1.08459e-05
1.10823e-05
3.74756e-06
1.53948e-06
6.68111e-06
9.82496e-07
1.01055e-06
1.89882e-06
1.9129e-06
1.86715e-06
8.98843e-06
8.64739e-06
7.4219e-06
1.10751e-05
2.92169e-06
4.75825e-06
9.68494e-06
1.14459e-05
6.63177e-06
4.77877e-06
1.45683e-07
5.83267e-06
8.19079e-06
1.11737e-05
5.23686e-06
1.14772e-05
8.57125e-06
9.32544e-06
6.03237e-06
1.14266e-05
4.80748e-06
4.55724e-06
4.99983e-06
1.11938e-05
7.45463e-06
3.44308e-06
2.38188e-06
5.46856e-06
4.90055e-06
4.89701e-06
8.28335e-06
7.52967e-06
1.12619e-05
6.57794e-06
1.05115e-06
9.54909e-06
2.22933e-06
9.89166e-06
8.83051e-06
7.54781e-06
1.14578e-05
5.94918e-06
1.14676e-05
2.89317e-06
1.71712e-06
1.68701e-06
4.66764e-06
3.9676e-06
7.51487e-06
5.43603e-06
8.30692e-07
9.90975e-06
7.59972e-06
1.08521e-05
6.16294e-06
7.82995e-06
1.15473e-05
4.7531e-06
4.76109e-06
2.00254e-06
8.01464e-06
1.107e-05
5.5253e-06
3.0691e-06
1.89638e-06
1.86252e-06
1.89483e-06
1.04213e-05
9.55913e-07
9.84707e-07
4.74579e-06
1.14064e-05
8.30339e-06
1.06551e-05
1.1471e-05
6.95162e-06
8.36673e-06
1.03215e-05
1.43529e-06
1.05842e-06
1.41832e-06
1.76718e-06
2.61155e-06
2.96456e-06
7.1377e-06
3.32493e-06
8.69215e-06
2.59893e-06
2.60682e-06
3.69661e-06
2.58708e-06
6.79211e-06
5.44138e-06
8.3422e-06
5.08639e-06
6.44256e-06
7.11992e-06
8.34815e-06
7.99592e-06
6.41794e-06
7.6387e-06
6.77171e-06
6.37882e-06
4.73839e-06
6.39081e-06
4.96373e-06
5.18378e-06
5.16948e-06
3.0369e-06
3.38058e-06
3.72289e-06
4.06531e-06
4.41621e-06
4.7999e-06
2.69914e-06
8.82454e-06
8.69451e-06
9.48741e-06
8.21587e-06
3.39735e-07
3.33403e-07
6.77687e-06
5.61696e-06
5.13955e-06
5.00955e-06
1.61639e-06
6.19633e-06
6.21664e-06
6.23916e-06
6.26329e-06
3.88075e-06
7.45878e-06
8.16792e-06
1.1284e-06
1.12622e-05
1.83457e-06
4.06523e-06
2.5653e-06
1.09236e-05
1.13878e-05
2.58996e-06
1.00189e-05
2.55928e-06
8.54128e-06
3.72982e-06
7.61443e-06
8.3184e-06
1.84667e-06
6.40206e-06
6.41867e-06
6.3563e-06
6.35964e-06
1.48003e-06
9.27487e-06
8.31594e-06
1.55397e-06
1.09601e-05
7.25272e-06
1.09096e-05
9.7684e-06
4.30441e-07
1.06175e-05
1.1459e-05
8.50476e-06
2.19313e-06
6.62903e-06
4.57022e-06
1.0943e-05
8.78804e-06
5.70542e-06
1.01872e-05
6.10488e-06
1.11378e-05
1.14553e-05
1.09573e-05
1.0052e-05
9.10252e-06
1.51385e-06
7.94943e-06
2.77053e-06
8.52152e-06
5.81727e-06
9.21624e-06
1.0963e-05
1.07974e-05
1.0833e-05
9.25079e-06
1.13744e-05
1.84915e-06
2.68208e-06
1.12293e-05
9.26635e-06
8.1734e-06
1.14354e-05
1.11568e-05
1.12638e-05
2.17879e-06
1.0787e-05
1.05949e-05
7.10879e-06
8.79139e-06
8.17589e-06
4.42726e-06
4.6235e-06
5.10836e-06
3.34438e-06
7.97261e-06
8.65938e-06
6.75606e-06
6.76684e-06
6.71521e-06
1.14125e-06
4.07884e-06
4.75994e-06
8.32002e-06
2.9814e-06
7.10702e-06
7.10384e-06
3.73709e-06
4.41895e-06
7.4553e-06
2.62424e-06
3.39577e-06
2.27034e-06
3.05516e-06
2.71421e-06
1.75256e-06
5.51824e-06
5.50178e-06
1.40836e-06
9.75324e-06
4.93913e-06
9.34128e-06
1.08872e-05
3.27673e-06
1.11713e-05
1.14297e-05
2.08569e-06
1.14576e-05
1.09123e-05
1.10071e-05
8.19389e-06
1.93937e-06
1.14614e-05
1.14712e-05
8.706e-06
8.78969e-06
1.10156e-05
1.14733e-05
6.17889e-06
4.18873e-06
1.14196e-05
1.13161e-05
7.86201e-06
1.09882e-06
1.09661e-05
4.19354e-06
3.67679e-06
3.14889e-06
2.61261e-06
1.14093e-05
2.0664e-06
2.91732e-06
9.42045e-06
9.88391e-06
1.14592e-05
1.13941e-05
5.08376e-06
5.44096e-06
1.13001e-05
5.15404e-06
5.14006e-06
9.19689e-06
6.01633e-06
7.43419e-06
1.15358e-05
1.07868e-05
5.80118e-07
6.874e-06
1.69789e-06
7.59809e-06
4.53281e-06
1.11186e-05
8.39623e-06
2.37719e-06
5.13239e-06
7.0723e-06
8.4528e-06
2.59408e-06
8.47906e-06
1.14669e-05
8.75704e-06
3.10099e-06
1.14585e-05
1.14609e-05
1.04465e-06
1.14741e-05
7.33168e-07
1.0844e-05
5.68496e-06
9.31859e-06
4.21165e-06
1.09779e-05
3.45945e-07
5.82353e-07
7.98228e-06
6.64136e-07
5.12073e-07
5.90493e-06
8.65548e-06
3.4696e-06
6.7597e-07
5.63878e-06
1.14612e-05
2.379e-06
3.82068e-06
1.14394e-05
6.62992e-07
1.09711e-05
2.77517e-06
8.14928e-06
3.85915e-06
7.11353e-06
5.74142e-06
7.25607e-06
1.02751e-05
1.14711e-05
7.53825e-06
1.02265e-05
8.64327e-06
3.95157e-06
1.08989e-05
1.11637e-05
1.80295e-06
8.87632e-06
1.14761e-05
1.14657e-05
8.10369e-06
7.50925e-06
1.11171e-05
4.76941e-06
4.78104e-06
1.13856e-05
4.46144e-07
9.34456e-06
8.34971e-06
2.79037e-06
5.82508e-06
9.79819e-06
3.51304e-06
6.6667e-06
8.47056e-06
1.15162e-05
5.52163e-07
7.77761e-06
7.07668e-06
9.32949e-06
6.41211e-06
7.05193e-06
4.73408e-06
1.04123e-05
1.1455e-05
8.62816e-06
9.3443e-06
1.14683e-05
5.36059e-06
5.3452e-06
2.86421e-06
2.43492e-06
7.29257e-06
4.56533e-06
6.56076e-06
4.78238e-06
4.03954e-06
7.97216e-06
1.06743e-05
9.34035e-06
3.87501e-06
1.14801e-05
5.35837e-06
7.17174e-06
1.07085e-05
6.11031e-06
8.30443e-06
6.46389e-06
1.15235e-05
1.13444e-05
1.02708e-05
1.09419e-05
7.29801e-06
1.13725e-05
7.91522e-06
1.09696e-05
1.10543e-05
1.10469e-05
2.98251e-06
4.8928e-06
5.05757e-06
9.37053e-06
1.04717e-05
6.50426e-06
1.11199e-05
1.14821e-05
9.09093e-06
8.20701e-06
7.41136e-06
5.62626e-06
1.07078e-06
6.66924e-06
1.09916e-05
1.1473e-05
8.45401e-06
1.00306e-05
4.86923e-06
1.09196e-05
8.02505e-06
4.3308e-06
6.54882e-06
3.8138e-06
1.15018e-05
4.79407e-06
1.25669e-06
5.33481e-06
7.51351e-06
7.79421e-06
6.40133e-06
5.1589e-06
1.07572e-05
1.14651e-05
1.08921e-05
8.12591e-06
6.00166e-06
9.0538e-06
7.8155e-06
9.85367e-06
1.14643e-05
9.22421e-06
7.57441e-06
1.12366e-05
1.1003e-05
7.4721e-06
8.53099e-06
7.31593e-06
8.8757e-06
6.57897e-06
2.77937e-06
1.1751e-06
1.13964e-06
2.02024e-06
2.07157e-06
2.0418e-06
4.98586e-06
4.99887e-06
5.67808e-06
5.49498e-06
7.15429e-06
7.99185e-06
9.55178e-06
1.02126e-06
1.46004e-06
2.70192e-08
1.12743e-05
5.31601e-06
2.58429e-07
1.10576e-05
1.09796e-05
8.77445e-06
4.53427e-06
4.52243e-06
5.56201e-06
1.01868e-05
3.66339e-06
5.67357e-06
7.61707e-06
9.2216e-06
5.49491e-06
8.39197e-06
3.25181e-06
1.10434e-05
9.00542e-06
1.1438e-05
1.14811e-05
8.64712e-07
1.09192e-05
5.04605e-06
5.32692e-06
1.14728e-05
6.76764e-06
1.88103e-06
1.09962e-05
9.30379e-07
4.63198e-06
8.11273e-06
7.43953e-06
8.61856e-06
3.10175e-06
6.15403e-07
1.77004e-06
8.65946e-06
7.6515e-06
1.12797e-05
1.14526e-05
6.76847e-06
8.09937e-06
1.22559e-06
5.50481e-06
5.06437e-06
9.08084e-06
1.13101e-05
1.1529e-05
9.63742e-06
6.99855e-07
9.98493e-06
4.39399e-06
4.49937e-06
6.93065e-06
6.00429e-06
4.3637e-06
6.45499e-06
8.86375e-06
9.78767e-06
4.51906e-06
4.52961e-06
4.35673e-06
3.85022e-06
3.32625e-06
2.79259e-06
1.0981e-05
2.24959e-06
8.39816e-06
5.15989e-06
1.14743e-05
1.14408e-05
1.08793e-05
8.42174e-06
9.36909e-06
7.5583e-06
9.59332e-06
7.64824e-06
1.01936e-05
6.19686e-06
1.13261e-05
6.9093e-06
4.89678e-06
1.15401e-05
7.26169e-06
8.69113e-06
2.32846e-06
1.72551e-06
2.8458e-06
3.3604e-06
5.4649e-06
3.88132e-06
5.48591e-06
1.18929e-06
1.09696e-05
1.12648e-05
1.00145e-05
9.82727e-06
4.94887e-07
5.02831e-07
5.85679e-06
4.58835e-06
7.77249e-06
1.09546e-05
1.07278e-05
1.14736e-05
1.14607e-05
1.14091e-05
9.7546e-06
1.09703e-05
1.0844e-05
2.40846e-06
1.14332e-05
6.2475e-06
8.14157e-06
9.98424e-06
1.14492e-05
1.00155e-05
2.61787e-06
8.76315e-06
3.66588e-06
1.09999e-05
9.3908e-06
8.92718e-06
1.0881e-05
1.1039e-05
8.7332e-07
1.1354e-05
1.24007e-06
1.59457e-06
3.20805e-06
3.5512e-06
2.78661e-06
3.89275e-06
8.17345e-06
6.94726e-06
6.96574e-06
3.14232e-06
4.91098e-06
4.23769e-06
6.59619e-06
6.6205e-06
7.81982e-06
8.51843e-06
3.50919e-06
5.26305e-06
4.60199e-06
1.11352e-05
2.51041e-06
8.82029e-06
1.05609e-05
1.10654e-05
5.24927e-06
9.63294e-06
3.76175e-06
7.42914e-06
1.15092e-05
2.54373e-06
1.09542e-05
1.1475e-05
9.73681e-06
7.03784e-06
1.10143e-05
7.61224e-06
1.33477e-06
1.06511e-05
9.013e-06
9.08117e-06
5.82687e-06
8.32599e-06
2.77639e-06
3.66619e-06
9.14582e-06
1.14808e-05
4.39136e-06
1.13402e-05
4.38201e-06
1.14847e-05
1.06986e-05
1.14677e-05
7.40237e-06
1.09438e-05
5.95493e-06
8.99097e-07
3.01628e-06
1.08219e-05
5.29787e-06
1.1476e-05
5.55446e-07
1.25616e-06
8.54278e-06
9.34432e-06
7.96552e-06
1.10879e-05
8.33778e-06
5.83957e-06
4.52481e-06
6.43881e-07
4.52014e-06
2.2601e-06
6.73841e-06
4.92957e-06
4.395e-06
7.46159e-06
1.82896e-06
4.93366e-06
4.60109e-06
5.53598e-06
5.51924e-06
2.69289e-06
5.12177e-06
8.03795e-06
2.26927e-06
2.26973e-06
1.0382e-05
5.39921e-06
1.11834e-05
1.05775e-05
7.74938e-07
8.0319e-07
6.73541e-06
1.10424e-05
2.77208e-06
2.70646e-06
1.56347e-06
6.0802e-06
5.75122e-06
1.09717e-05
1.09803e-05
1.05125e-05
9.46903e-06
7.08782e-06
1.14682e-05
1.15395e-05
9.76827e-06
6.79277e-06
7.07553e-06
1.1476e-05
5.04195e-06
4.53077e-06
9.05366e-06
1.14888e-05
1.01937e-05
1.00655e-05
1.59429e-06
2.73622e-06
4.8261e-06
9.27149e-06
1.12178e-05
3.34936e-06
1.3339e-06
2.44196e-06
1.14521e-05
1.14755e-05
1.14634e-05
8.9967e-06
1.13409e-05
9.40492e-06
3.10447e-06
1.14409e-05
1.07947e-05
4.34771e-06
9.91411e-06
8.59012e-06
7.42417e-06
4.11256e-06
1.14884e-05
1.1425e-05
1.13974e-05
1.14747e-05
9.59906e-06
1.00361e-05
1.08799e-05
6.1289e-06
4.22417e-06
2.08838e-06
1.15053e-05
2.62951e-06
3.1579e-06
3.6894e-06
4.22132e-06
1.08168e-05
1.10639e-05
6.98166e-06
1.15866e-05
1.73136e-06
1.10987e-05
2.53858e-06
8.69032e-06
6.07797e-06
1.11998e-05
4.65969e-06
8.79319e-07
9.06629e-07
9.85881e-06
8.7896e-06
1.71452e-06
1.73155e-06
1.09616e-05
2.57796e-06
4.95898e-06
1.1422e-05
2.60595e-06
7.55217e-06
8.07207e-06
9.51811e-06
1.09107e-05
2.59882e-06
1.13971e-05
6.41369e-06
6.48835e-06
3.86295e-06
2.9422e-06
7.13e-06
4.75434e-06
1.14975e-05
4.84376e-06
4.82998e-06
8.20715e-06
8.67303e-06
1.14708e-05
1.70027e-06
9.61134e-06
5.72153e-07
6.37834e-07
8.94016e-06
2.84701e-06
1.15191e-05
2.45162e-06
9.53724e-07
1.51304e-06
1.09616e-05
1.14551e-05
1.01997e-05
1.051e-06
1.02563e-06
1.88427e-06
1.90361e-06
1.90538e-06
6.05003e-06
3.88884e-06
3.88596e-06
1.09641e-05
1.03867e-05
1.11287e-05
3.48233e-06
1.14109e-05
1.57118e-06
1.53366e-06
7.68339e-06
1.09559e-05
4.03133e-06
1.15319e-05
1.14753e-05
1.10354e-05
9.62503e-06
2.68105e-06
1.14596e-05
3.42311e-06
1.72728e-06
5.57443e-06
1.58685e-06
6.21212e-06
6.19308e-06
2.00514e-06
8.16195e-06
7.45634e-06
3.86852e-06
6.23761e-06
6.25929e-06
1.135e-06
1.14109e-05
7.13884e-06
8.9103e-06
1.12285e-05
1.04936e-05
2.41653e-06
1.14158e-05
1.11296e-05
8.96154e-06
2.43397e-06
5.983e-06
4.3719e-06
1.11453e-05
3.20772e-06
1.00405e-05
2.42973e-06
2.27136e-06
2.80587e-06
3.3344e-06
3.86918e-06
4.37371e-06
1.08117e-05
9.0627e-06
9.55432e-06
5.38236e-06
8.12507e-06
3.20638e-06
1.07782e-05
8.1354e-06
1.02752e-05
1.10467e-05
1.14688e-05
1.03866e-05
7.261e-06
1.11991e-05
1.1409e-05
1.00869e-05
1.09996e-05
6.5049e-06
3.8625e-06
9.27933e-06
1.10054e-05
1.15114e-05
5.83516e-06
5.42352e-06
7.78885e-06
1.11547e-05
1.08095e-05
7.43599e-06
7.67338e-06
9.20209e-06
1.02348e-05
7.10271e-06
6.28932e-06
1.14773e-05
1.10592e-05
7.684e-06
6.73489e-06
4.93479e-06
4.94824e-06
1.10564e-05
2.19686e-06
1.01207e-05
3.86874e-06
3.34089e-06
2.80749e-06
2.27025e-06
4.50212e-06
1.14249e-05
2.00122e-06
7.16052e-06
1.14713e-05
1.13072e-05
1.39281e-06
7.14126e-06
8.03029e-07
9.7992e-06
5.8846e-06
1.01217e-05
4.68296e-07
4.59172e-07
1.16757e-05
5.09947e-06
1.15388e-05
1.13935e-05
1.06748e-05
4.40546e-06
8.94426e-07
8.97273e-07
1.10365e-05
1.1475e-05
1.14907e-05
8.92603e-06
5.60034e-06
1.13809e-05
1.21559e-06
9.30992e-06
1.14575e-05
5.9629e-06
4.40498e-06
9.23598e-06
4.39737e-06
1.08575e-05
1.14325e-05
9.39736e-06
7.27768e-06
1.10126e-05
9.77321e-06
1.10809e-05
1.14759e-05
1.09438e-05
5.91604e-07
1.11912e-05
1.0643e-05
1.14716e-05
1.12023e-05
8.99972e-06
1.00013e-05
1.14538e-05
1.14411e-05
1.14294e-05
5.28174e-06
1.16162e-05
1.12659e-05
6.514e-06
1.133e-05
9.66907e-06
6.9269e-06
1.97583e-06
9.86879e-06
1.00605e-05
7.63469e-06
2.31765e-06
8.16371e-06
5.50285e-06
1.07713e-05
8.60729e-07
1.0959e-05
1.11628e-05
1.7955e-07
1.14819e-05
1.19724e-06
1.16962e-06
2.04984e-06
2.08938e-06
2.07523e-06
9.85628e-06
1.08053e-05
1.72334e-06
1.02339e-06
7.74117e-06
5.65605e-06
5.63546e-06
3.71015e-06
1.54348e-06
3.19349e-06
2.68126e-06
2.1424e-06
3.52626e-07
7.5106e-06
6.01983e-06
5.9864e-06
1.78538e-06
1.30265e-06
4.06872e-06
7.27258e-06
7.9634e-06
2.18738e-06
6.03445e-06
6.05463e-06
9.52395e-06
6.84184e-06
1.06962e-05
9.0686e-06
1.14678e-05
1.14093e-05
1.144e-05
3.62323e-07
5.12802e-06
1.1457e-05
1.14273e-05
1.12492e-05
4.79724e-06
4.78407e-06
1.03566e-05
6.69099e-07
9.34364e-06
9.80752e-06
7.63953e-06
6.22009e-06
6.00725e-06
1.1894e-06
3.36269e-06
2.85284e-06
2.32165e-06
1.13936e-05
9.69129e-06
5.47105e-06
5.47306e-06
3.88714e-06
1.73996e-06
9.97236e-06
1.13429e-05
3.30207e-06
5.3498e-06
1.0867e-05
1.15175e-05
4.37356e-06
9.23752e-06
1.64466e-06
1.13575e-05
1.1521e-05
1.08481e-05
1.14287e-05
2.43538e-07
1.14689e-05
1.10686e-05
2.75322e-06
8.93371e-06
6.35743e-06
4.00355e-06
1.52592e-06
1.43224e-06
1.14663e-05
2.38221e-06
2.42135e-06
1.14671e-05
1.14664e-05
3.08741e-06
2.75623e-06
1.26525e-06
1.14397e-05
7.02376e-06
1.13974e-05
4.96361e-06
2.09337e-06
1.09699e-05
2.43172e-06
2.97146e-06
3.50279e-06
4.02237e-06
1.14587e-05
1.1439e-05
1.14696e-05
6.2983e-06
3.77715e-06
9.69675e-06
9.83872e-06
1.05673e-05
1.1389e-05
1.07167e-05
2.38021e-06
1.14606e-05
9.4756e-06
1.08371e-05
5.75324e-07
5.80949e-07
1.04093e-05
1.14732e-05
1.09854e-05
6.32129e-06
3.8434e-06
8.37821e-06
9.68599e-06
6.8099e-06
4.23517e-06
1.13256e-05
9.60438e-06
1.10698e-05
1.13222e-05
2.66761e-06
7.83247e-06
2.57044e-06
8.57823e-07
5.23341e-06
1.07383e-05
1.88256e-06
2.59183e-06
1.18035e-06
1.21817e-06
6.93007e-06
1.14675e-05
2.07281e-06
2.08256e-06
2.03992e-06
7.33053e-06
1.09947e-05
1.14664e-05
1.08172e-05
1.10334e-05
1.14614e-05
6.37446e-06
6.34977e-06
8.26713e-06
6.3371e-06
1.14713e-05
7.62006e-06
1.57789e-06
6.30212e-06
3.87055e-06
1.86728e-06
7.58053e-06
1.14513e-05
1.12598e-05
1.84561e-06
1.8524e-06
6.04732e-06
8.49276e-06
9.05357e-06
1.14691e-05
1.14168e-05
1.68679e-06
1.67326e-06
9.037e-06
1.09597e-05
2.53226e-06
5.36005e-06
1.11448e-05
2.7869e-06
1.0868e-05
1.81642e-06
7.45092e-06
1.14787e-05
1.07683e-05
1.00017e-06
1.47689e-06
4.32218e-06
7.97842e-06
8.53183e-06
5.90317e-06
6.76673e-06
5.86675e-06
1.01429e-05
1.11472e-05
9.32744e-06
4.30033e-06
2.16934e-06
3.3227e-06
3.85448e-06
6.97792e-06
1.14696e-05
1.14762e-05
8.45811e-07
1.14354e-05
4.59226e-06
2.96628e-06
1.65485e-06
4.78517e-06
9.17055e-06
6.02974e-06
2.42338e-06
5.25642e-06
4.94359e-06
1.11874e-05
1.15177e-05
3.76532e-06
8.98567e-06
1.02033e-05
3.50062e-06
4.02074e-06
5.9317e-06
5.70711e-07
1.1108e-05
2.73659e-06
2.94183e-06
6.40943e-07
2.91293e-06
3.5011e-06
7.81647e-06
8.5205e-06
6.58972e-06
6.62053e-06
6.56046e-06
6.57977e-06
1.24612e-06
1.13792e-05
2.17467e-06
2.24353e-06
1.34766e-06
1.25457e-06
3.88358e-06
2.02915e-06
2.22444e-06
7.64737e-06
3.47639e-06
5.47825e-07
1.13312e-05
1.19252e-06
4.24483e-06
4.90936e-06
3.13688e-06
8.17959e-06
6.97582e-06
6.94423e-06
8.87068e-06
2.17388e-06
2.53001e-06
1.36483e-06
3.03747e-06
1.4133e-06
1.07164e-05
3.90316e-06
4.56559e-06
7.30917e-06
2.78869e-06
7.29276e-06
8.53131e-06
3.55917e-06
2.44104e-06
3.21178e-06
2.86225e-06
1.9228e-06
8.82632e-06
1.58469e-06
3.54837e-06
5.77509e-06
5.33392e-06
5.31881e-06
2.45774e-06
1.36287e-06
1.39864e-06
1.14618e-05
1.3233e-06
1.35781e-06
1.00719e-06
4.45661e-06
1.14356e-05
4.45508e-06
2.21759e-06
1.80161e-06
1.09256e-05
2.24649e-06
2.25566e-06
2.20434e-06
1.05952e-05
2.25806e-06
2.23475e-06
1.25493e-06
1.01421e-05
1.10138e-05
4.48905e-06
1.14892e-05
9.00795e-06
5.55458e-06
3.50882e-06
4.02388e-06
1.16027e-06
5.14427e-06
6.87174e-06
8.88559e-06
1.75767e-06
1.68907e-06
1.03308e-05
2.90178e-07
6.74465e-07
9.18589e-06
5.12316e-06
5.11456e-06
9.20362e-06
1.14614e-05
2.04809e-06
6.27651e-06
6.30162e-06
3.91492e-06
6.75958e-06
9.10012e-06
1.61253e-06
6.22548e-06
6.15699e-06
1.14708e-05
9.86983e-07
9.2515e-06
5.51099e-06
7.04521e-06
7.41353e-06
8.19439e-06
4.87568e-06
4.8772e-06
1.64934e-06
1.02927e-06
3.08666e-06
8.39557e-06
5.61634e-06
6.98141e-06
7.85221e-06
1.73349e-06
2.04158e-06
1.99672e-06
1.14562e-05
2.93591e-06
4.02929e-06
1.13986e-05
3.20935e-06
2.69535e-06
2.22844e-06
2.58274e-06
3.72249e-06
4.75067e-06
1.57342e-06
9.02135e-06
8.20982e-06
6.56943e-06
1.89185e-06
1.92952e-06
1.04246e-05
4.42258e-06
6.92294e-06
4.22182e-06
7.6225e-06
2.09571e-06
2.51959e-06
5.68853e-06
5.70615e-06
5.43061e-06
1.39337e-06
2.2736e-06
7.30651e-06
7.1406e-06
2.95763e-06
2.78809e-06
5.48005e-06
3.11763e-06
8.16985e-06
8.54303e-06
7.42062e-06
1.14689e-05
6.12419e-06
7.67864e-06
1.06964e-05
1.59076e-06
1.29093e-06
5.62942e-06
2.23537e-06
4.63175e-06
3.27669e-06
4.42509e-06
8.72381e-06
1.07396e-06
3.15729e-06
4.77367e-06
4.75993e-06
6.50941e-06
6.51021e-06
8.40728e-06
8.93732e-06
4.76163e-06
4.74871e-06
5.26349e-06
5.46588e-06
2.80981e-06
3.33241e-06
3.85648e-06
4.39506e-06
4.08464e-06
7.81118e-06
6.93596e-06
5.95485e-06
4.37447e-06
6.24713e-06
1.95883e-06
1.215e-06
6.46649e-06
9.0175e-07
1.08367e-05
8.57539e-06
1.14602e-05
4.40881e-06
2.62751e-06
8.02208e-06
2.76675e-06
7.46381e-06
6.28229e-06
4.25275e-06
2.10189e-06
7.48339e-06
3.22084e-06
2.78979e-06
1.2435e-06
3.45868e-06
7.99046e-06
8.76445e-06
4.07133e-06
6.57021e-06
5.8364e-07
5.97219e-07
6.74438e-06
1.0264e-05
4.77522e-06
5.29284e-06
5.29181e-06
4.78586e-06
4.77203e-06
4.58962e-06
5.80663e-06
2.71529e-06
4.91147e-06
2.58698e-06
9.82335e-07
1.86619e-06
2.51999e-06
3.39374e-06
3.74043e-06
7.28888e-06
7.50683e-06
5.06762e-06
4.91018e-06
7.10892e-06
8.65994e-06
6.77179e-06
6.7679e-06
4.80564e-06
5.45856e-06
5.44232e-06
1.44468e-06
6.78374e-06
2.34542e-06
2.63569e-06
2.61905e-06
3.0473e-06
1.14609e-06
2.59705e-06
8.87688e-06
6.9844e-06
6.94792e-06
8.35583e-06
7.35791e-06
2.87262e-06
2.4463e-06
7.19726e-06
2.98318e-06
2.27208e-06
4.54979e-06
1.87072e-06
1.01169e-05
4.20668e-06
6.40276e-06
3.6858e-06
4.20504e-06
5.15252e-06
5.10166e-06
5.88016e-06
3.91345e-06
4.96111e-06
6.22779e-06
1.47739e-06
1.14654e-05