/*--------------------------------*- C++ -*----------------------------------*\
  =========                 |
  \\      /  F ield         | OpenFOAM: The Open Source CFD Toolbox
   \\    /   O peration     | Website:  https://openfoam.org
    \\  /    A nd           | Version:  8
     \\/     M anipulation  |
\*---------------------------------------------------------------------------*/
FoamFile
{
    version     2.0;
    format      ascii;
    class       volScalarField;
    location    "5";
    object      p;
}
// * * * * * * * * * * * * * * * * * * * * * * * * * * * * * * * * * * * * * //

dimensions      [0 2 -2 0 0 0 0];

internalField   nonuniform List<scalar> 
1642
(
8.73609e-05
7.38002e-05
7.20998e-05
7.68772e-05
8.7462e-05
8.73796e-05
8.7278e-05
8.73106e-05
8.71488e-05
8.73495e-05
7.85141e-05
8.65761e-05
8.72884e-05
8.73261e-05
8.72237e-05
8.68105e-05
8.72965e-05
8.73343e-05
8.73759e-05
8.73689e-05
8.7341e-05
8.71679e-05
8.74313e-05
8.69695e-05
8.73007e-05
8.70947e-05
8.7429e-05
8.41287e-05
1.91445e-06
1.82672e-06
1.77484e-06
8.73389e-05
8.52109e-05
8.73561e-05
8.73343e-05
8.71892e-05
8.66373e-05
8.73704e-05
8.72577e-05
8.73356e-05
8.75091e-05
8.73738e-05
8.73731e-05
6.62149e-05
9.04171e-05
8.73438e-05
8.74434e-05
8.7383e-05
8.73762e-05
8.72931e-05
8.73759e-05
8.73977e-05
8.73649e-05
7.66666e-05
7.7691e-05
8.71731e-05
8.71737e-05
8.73368e-05
8.67113e-05
8.75825e-05
8.73432e-05
8.73429e-05
8.73912e-05
8.70535e-05
8.71847e-05
8.73694e-05
8.73588e-05
8.73688e-05
8.71572e-05
8.7376e-05
8.73878e-05
8.72982e-05
8.73977e-05
8.75438e-05
8.72715e-05
8.68847e-05
9.2653e-07
9.60945e-07
1.01625e-06
8.73283e-05
8.73678e-05
8.7368e-05
8.63522e-05
8.72944e-05
8.89179e-05
8.68704e-05
8.70747e-05
8.7301e-05
8.70553e-05
8.73548e-05
8.73275e-05
8.72678e-05
8.71388e-05
8.71518e-05
8.72332e-05
8.72325e-05
8.73459e-05
8.72768e-05
8.72715e-05
8.71054e-05
8.70975e-05
8.67221e-05
8.73387e-05
3.01455e-05
3.20139e-05
3.41656e-05
3.4444e-05
4.17516e-05
2.65639e-05
2.36214e-05
4.29372e-05
2.62473e-05
4.17178e-05
1.08711e-05
1.13059e-05
8.46158e-06
8.09839e-06
5.09617e-06
5.70934e-05
6.07037e-05
8.14165e-06
5.60852e-05
5.59149e-05
8.68882e-05
8.72838e-05
8.74646e-05
8.74444e-05
8.73606e-05
8.73102e-05
8.72872e-05
8.74315e-05
8.72802e-05
8.73525e-05
8.80782e-05
8.73665e-05
8.73731e-05
8.73242e-05
8.73649e-05
8.73543e-05
8.64198e-05
8.72539e-05
8.73721e-05
8.73656e-05
8.74004e-05
8.72405e-05
8.73277e-05
8.75417e-05
8.73708e-05
8.75345e-05
8.73517e-05
8.73345e-05
8.74287e-05
8.73691e-05
8.73485e-05
8.68975e-05
8.75688e-05
8.75405e-05
8.73744e-05
8.73463e-05
8.73038e-05
8.73699e-05
8.7368e-05
8.73281e-05
8.73583e-05
8.73582e-05
8.74464e-05
8.75106e-05
8.73624e-05
8.7435e-05
8.71732e-05
8.72316e-05
8.73455e-05
8.73729e-05
8.73611e-05
8.73741e-05
8.73757e-05
8.73462e-05
8.73164e-05
8.73583e-05
8.86811e-05
8.71918e-05
8.73724e-05
8.68367e-05
8.73759e-05
8.73665e-05
8.72869e-05
8.74165e-05
8.73693e-05
8.72456e-05
8.72514e-05
8.71601e-05
8.73756e-05
8.73679e-05
8.72768e-05
8.74435e-05
8.72255e-05
8.6854e-05
8.73671e-05
8.71818e-05
8.73484e-05
8.73704e-05
8.73759e-05
8.69372e-05
8.72098e-05
8.72771e-05
8.73709e-05
8.73432e-05
3.20756e-05
2.77067e-05
2.59348e-05
2.60545e-05
2.78987e-05
3.28292e-05
3.37555e-05
2.87077e-05
4.40345e-05
3.30245e-05
4.49674e-05
2.68798e-05
3.09846e-05
3.66712e-05
2.50865e-05
3.85058e-05
1.76309e-05
3.48338e-05
2.56913e-05
2.66496e-05
5.38171e-05
2.87748e-05
2.49376e-05
4.57387e-05
3.38177e-05
3.74382e-05
2.69381e-05
3.56002e-05
3.00579e-05
3.1923e-05
3.92725e-05
4.86606e-05
2.30841e-05
5.45513e-05
3.49161e-05
4.68128e-05
5.5963e-05
2.3281e-05
8.90448e-06
4.75777e-05
5.51858e-05
5.62779e-05
8.53345e-06
8.4958e-06
4.03383e-05
5.82229e-05
5.60067e-05
1.31357e-05
1.26714e-05
1.56078e-05
5.31572e-05
3.62449e-05
1.36223e-05
5.23226e-05
5.0206e-05
5.12035e-05
8.86387e-06
5.60399e-05
4.91839e-05
2.46826e-05
3.86991e-05
5.72773e-05
4.53066e-05
4.94002e-05
1.22066e-05
1.55941e-05
4.83102e-05
5.22146e-05
6.21869e-05
4.70743e-05
4.2464e-05
4.12543e-05
4.32651e-05
2.4169e-05
1.45313e-05
4.20446e-05
6.09195e-05
6.73242e-06
1.73938e-05
3.57112e-05
5.43321e-05
1.73678e-05
3.90876e-05
1.68212e-05
2.26455e-05
4.42828e-05
2.14211e-05
1.40222e-05
3.75986e-05
6.68884e-06
6.36332e-05
6.7483e-05
4.05804e-05
1.26e-05
9.40858e-06
1.17191e-05
1.96165e-05
9.80129e-06
3.52543e-05
2.3973e-06
2.26232e-05
1.03329e-05
1.12767e-05
1.07488e-05
2.39867e-05
5.20121e-05
5.86473e-05
4.51602e-05
1.67898e-05
2.06141e-05
1.25747e-05
2.67007e-05
4.969e-06
6.66587e-05
2.78586e-05
4.31695e-06
3.4684e-05
5.82741e-05
6.45576e-05
3.47648e-05
5.51714e-05
2.21297e-06
4.12471e-05
4.66587e-05
5.01456e-05
9.60663e-06
1.54964e-05
3.39137e-05
1.58877e-05
1.15756e-05
9.57156e-06
2.96743e-05
2.36365e-05
2.16446e-05
3.06511e-05
5.92112e-05
3.24917e-05
1.49642e-05
6.00754e-05
6.34945e-05
6.09133e-05
2.2321e-05
1.49541e-05
4.42124e-05
5.41446e-05
1.15951e-05
6.496e-05
1.64396e-05
4.13906e-06
1.54857e-05
4.38664e-06
6.43259e-05
2.11777e-05
3.06813e-05
2.87364e-05
2.69748e-05
2.96995e-05
2.87508e-05
2.20871e-05
3.17152e-05
4.29661e-05
3.07028e-05
6.39867e-05
2.66183e-06
4.11061e-05
4.15291e-05
1.92729e-05
2.77886e-05
5.77475e-05
4.02428e-05
5.11726e-05
5.11525e-05
4.6258e-05
4.21094e-05
4.41152e-05
1.76026e-05
2.96758e-05
2.02208e-05
1.86516e-05
3.1153e-05
7.62259e-06
3.29979e-05
2.88271e-05
4.38892e-05
5.90375e-05
3.16791e-05
7.96868e-06
5.52743e-05
5.19845e-06
6.23151e-05
2.32453e-05
3.68039e-05
1.95705e-05
5.51346e-05
3.82446e-05
4.52931e-05
8.6179e-06
5.80256e-06
1.45852e-05
7.58978e-06
3.65209e-05
4.93202e-05
1.86409e-05
3.9486e-05
4.48177e-05
5.21578e-05
1.96229e-05
5.61096e-05
5.53091e-05
5.4676e-05
7.59284e-06
5.80393e-05
3.39679e-05
7.93606e-06
3.70941e-05
1.16903e-05
7.63882e-06
1.66166e-05
4.92934e-06
3.75877e-05
1.46122e-05
3.96391e-05
2.56416e-05
4.62994e-05
4.81794e-05
4.72049e-05
2.02029e-05
1.95555e-05
4.22572e-05
5.69529e-05
4.0098e-05
5.30335e-05
2.76596e-05
4.1371e-05
5.61501e-05
3.83561e-05
2.4635e-05
1.65976e-05
2.11462e-05
1.40507e-05
2.30399e-05
5.29941e-05
1.45604e-05
3.57511e-05
6.11866e-05
4.33999e-05
4.31107e-05
4.11187e-05
5.02977e-05
4.76987e-06
1.92621e-05
5.2164e-05
2.06327e-05
3.66577e-05
4.07186e-06
3.72399e-05
5.70716e-05
5.04829e-05
5.67864e-05
5.94543e-05
3.94223e-05
5.13188e-05
3.85363e-05
6.15354e-05
5.39201e-05
6.53476e-05
4.81423e-05
6.02108e-05
5.31545e-05
4.91482e-05
1.05695e-05
5.65115e-06
2.60151e-05
3.468e-05
4.21739e-05
1.35799e-05
3.35995e-06
2.58913e-05
2.42065e-05
1.99925e-05
1.07632e-05
2.97023e-05
5.66305e-05
3.20701e-05
4.61178e-05
4.80436e-05
2.13962e-05
5.20355e-05
3.80928e-05
5.00564e-05
3.06111e-05
4.01949e-05
7.04378e-05
3.56905e-06
4.58924e-05
5.1056e-05
6.10005e-06
6.83023e-05
3.56923e-05
5.1366e-05
1.83128e-05
1.77131e-05
3.24539e-05
5.43662e-05
4.04304e-05
4.23134e-05
1.26374e-05
5.68981e-05
2.04754e-05
3.26777e-05
2.7814e-05
1.52988e-05
5.79947e-05
2.403e-05
1.64252e-05
1.587e-05
6.11668e-05
5.91601e-05
6.33761e-05
3.50495e-06
2.80445e-05
4.72999e-05
1.03442e-05
3.82006e-06
4.84942e-05
4.71337e-05
4.51222e-05
6.99127e-05
7.05193e-06
4.61256e-05
2.82142e-05
6.1253e-06
5.28198e-05
2.21421e-05
2.9097e-05
5.33372e-05
8.57636e-06
3.29032e-06
3.06072e-05
1.12502e-05
6.18759e-05
2.86669e-05
4.90397e-05
4.95797e-05
1.21738e-05
3.91478e-06
2.3655e-05
6.0153e-05
5.35916e-05
3.34411e-05
1.77391e-05
3.33827e-05
5.24098e-06
1.80629e-05
4.95706e-05
3.00355e-05
4.77354e-05
3.27321e-05
1.30971e-05
1.05964e-05
7.01071e-06
1.43752e-05
3.28715e-05
4.32721e-05
3.1528e-05
5.72471e-05
3.72245e-05
3.30731e-05
1.58394e-05
5.75295e-05
5.03178e-05
2.04968e-05
5.42449e-05
2.96882e-05
3.09782e-05
3.36773e-05
2.23512e-05
3.77569e-05
3.58612e-05
3.43115e-05
3.50851e-05
3.1908e-05
4.435e-05
3.40782e-05
2.91354e-05
5.52497e-05
3.00687e-05
9.44513e-06
3.1545e-05
4.44431e-05
6.61323e-06
1.29998e-05
1.35835e-05
9.84064e-06
3.9243e-05
2.81541e-05
1.89838e-05
2.51382e-05
4.10063e-05
3.10724e-05
4.31016e-05
5.39603e-05
5.83293e-06
2.16168e-05
3.91104e-05
5.30231e-05
1.36113e-05
3.97078e-05
2.20073e-05
5.97438e-06
1.83317e-05
4.00557e-05
1.39576e-05
2.68391e-05
2.09984e-05
1.25268e-05
5.41138e-05
1.99048e-05
5.27727e-05
5.51635e-05
2.90572e-05
4.47204e-05
6.28994e-06
5.45618e-05
3.52372e-05
1.6784e-05
4.907e-05
1.86724e-05
4.57255e-05
4.75805e-05
2.49878e-05
1.59762e-05
4.77322e-05
2.26721e-05
2.05663e-05
2.08262e-05
2.15131e-05
4.02119e-06
4.29455e-06
4.62797e-05
4.5703e-05
3.01922e-06
4.53609e-05
1.62218e-05
3.81697e-05
1.48939e-05
1.96201e-05
1.71436e-05
1.77279e-05
4.66368e-05
4.97494e-05
4.81346e-05
4.85637e-05
5.4238e-05
4.07708e-05
4.07168e-05
4.19526e-05
1.39477e-05
5.58677e-05
6.67203e-06
2.35974e-05
5.59709e-05
2.45228e-05
4.87412e-05
6.27024e-05
2.40184e-05
1.34516e-05
2.17476e-05
5.32333e-05
3.98451e-05
4.67294e-05
5.79699e-05
3.27248e-06
3.89166e-05
3.61584e-05
3.79931e-05
5.99958e-05
4.70922e-06
4.7202e-05
3.70752e-05
3.60895e-05
5.90292e-05
5.58416e-05
1.86072e-05
5.47396e-05
5.17607e-05
1.49655e-05
5.0543e-05
1.86269e-05
5.19234e-05
5.00883e-06
5.30336e-06
5.0754e-05
5.37873e-05
1.29496e-05
2.30132e-05
1.69824e-05
1.89881e-05
1.79868e-05
5.71546e-06
5.48087e-05
8.73738e-05
8.73663e-05
8.73639e-05
8.74243e-05
8.72526e-05
8.73742e-05
8.72583e-05
8.73475e-05
8.73188e-05
8.73743e-05
8.73688e-05
3.51667e-05
3.31771e-05
3.19788e-05
2.83384e-05
3.02637e-05
3.10839e-05
3.10598e-05
3.01662e-05
2.82475e-05
3.76706e-05
3.97424e-05
3.6701e-05
4.07451e-05
2.91641e-05
3.47624e-05
3.95678e-05
4.41865e-05
3.86247e-05
3.38349e-05
3.29091e-05
4.0507e-05
3.66056e-05
2.00964e-05
2.41141e-05
1.99938e-05
2.18512e-05
2.16058e-05
2.11045e-05
2.06655e-05
2.46205e-05
3.56887e-05
2.37012e-05
2.31152e-05
2.27764e-05
2.09196e-05
2.92378e-05
2.21155e-05
1.97159e-05
4.07952e-05
4.52075e-05
4.52328e-05
1.81518e-05
4.62156e-05
1.90765e-05
4.7229e-05
3.75187e-05
4.44994e-05
1.87695e-05
3.98805e-05
1.68682e-05
1.63037e-05
4.82269e-05
5.02426e-05
1.80918e-05
1.78175e-05
1.72269e-05
5.22487e-05
4.92354e-05
1.90934e-05
1.53854e-05
4.61929e-05
1.59266e-05
4.91272e-05
4.71451e-05
1.40651e-05
4.48876e-05
5.12469e-05
4.81181e-05
5.32538e-05
1.60767e-05
1.49802e-05
1.44596e-05
5.42628e-05
5.01669e-05
1.35406e-05
1.40389e-05
1.30561e-05
4.8566e-05
5.33484e-05
5.62745e-05
5.12222e-05
4.67358e-05
1.50748e-05
4.58129e-05
5.22847e-05
5.22741e-05
4.76515e-05
5.55453e-05
5.90087e-05
5.5272e-05
1.70863e-05
5.6406e-05
5.31945e-05
6.45189e-06
5.99422e-05
6.14781e-06
4.63745e-06
5.52816e-06
5.24773e-06
5.57559e-05
4.38184e-06
3.57934e-06
6.28462e-05
3.80185e-06
6.40269e-05
5.60277e-05
8.69137e-05
8.62633e-05
8.73755e-05
8.73726e-05
8.73133e-05
8.73982e-05
8.73646e-05
8.68517e-05
3.87028e-05
3.57384e-05
4.37168e-05
2.52967e-05
2.54458e-05
2.24558e-05
4.35285e-05
2.502e-05
4.47726e-05
9.74401e-06
1.01468e-05
5.19741e-05
7.39201e-06
7.01716e-06
9.92413e-06
7.06308e-06
6.1532e-05
3.64818e-06
5.74963e-05
5.46934e-05
5.59386e-05
8.73653e-05
3.87335e-05
3.53908e-05
4.37693e-05
2.17212e-05
2.45626e-05
2.47185e-05
4.35646e-05
2.42305e-05
4.48347e-05
9.03035e-06
9.41549e-06
5.19807e-05
7.50942e-06
6.15953e-05
7.16779e-06
9.14561e-06
5.68911e-05
7.13103e-06
5.47687e-05
5.65137e-05
8.73722e-05
8.74122e-05
8.7342e-05
8.73589e-05
8.73583e-05
8.73812e-05
8.73425e-05
8.73377e-05
8.73774e-05
8.7378e-05
8.72483e-05
8.73752e-05
8.73375e-05
8.73684e-05
8.73667e-05
8.72789e-05
8.73721e-05
8.70427e-05
8.70094e-05
8.73727e-05
8.74414e-05
8.73685e-05
8.73644e-05
8.66752e-05
8.60009e-05
8.71359e-05
8.73972e-05
8.71849e-05
8.7378e-05
8.72169e-05
8.73411e-05
8.73469e-05
8.68245e-05
8.73581e-05
8.79362e-05
8.73022e-05
8.73689e-05
8.74285e-05
8.73521e-05
8.73594e-05
8.73252e-05
8.73704e-05
8.72026e-05
8.73066e-05
8.5816e-05
8.73465e-05
8.73553e-05
8.7328e-05
8.73634e-05
8.73202e-05
8.73756e-05
8.7378e-05
8.74044e-05
8.72929e-05
8.72869e-05
8.73229e-05
8.73689e-05
8.73089e-05
8.71127e-05
8.73308e-05
8.73915e-05
8.73085e-05
8.73342e-05
8.72416e-05
8.73962e-05
8.73693e-05
5.57012e-05
6.12438e-05
5.09756e-05
4.38328e-05
4.26025e-05
4.27086e-05
3.76951e-05
3.29539e-06
8.72176e-05
8.72187e-05
8.71914e-05
8.72591e-05
8.73546e-05
8.73654e-05
8.73218e-05
3.62777e-05
8.73173e-05
7.98453e-06
8.33888e-06
2.9757e-05
5.68943e-05
5.77861e-05
8.01761e-06
6.10672e-05
5.70173e-05
8.91104e-06
5.80228e-06
5.06476e-06
5.68858e-05
9.19799e-06
8.81774e-06
5.59971e-05
1.1602e-05
1.19442e-05
1.20518e-05
1.07688e-05
1.11945e-05
3.20912e-05
4.3318e-05
4.21626e-05
4.20985e-05
2.43531e-05
2.35108e-05
3.02411e-05
2.7037e-05
3.37427e-05
3.42641e-05
2.61358e-05
3.15993e-05
2.72034e-05
3.48102e-05
2.72964e-05
2.64681e-05
8.72042e-05
8.71926e-05
8.73383e-05
8.73837e-05
8.71487e-05
8.72328e-05
8.73694e-05
8.5766e-05
8.62174e-05
2.56464e-05
2.52406e-05
2.5501e-05
3.7744e-05
2.26738e-05
4.27625e-05
1.01533e-05
3.63249e-05
4.26433e-05
6.1085e-06
1.03637e-05
4.38877e-05
5.72946e-05
4.1269e-06
9.95315e-06
5.10156e-05
6.12144e-05
5.54657e-05
6.55453e-06
6.23647e-06
5.55028e-05
8.72221e-05
8.73374e-05
8.72295e-05
8.73676e-05
8.72589e-05
8.73753e-05
8.73308e-05
3.67468e-05
2.64471e-05
5.00709e-05
1.1156e-05
8.77573e-05
8.58458e-05
8.7441e-05
8.73038e-05
8.71829e-05
8.70366e-05
8.71741e-05
8.73074e-05
8.7357e-05
8.7352e-05
8.72299e-05
8.73723e-05
8.68342e-05
8.69945e-05
8.71316e-05
8.7354e-05
8.71583e-05
8.73669e-05
8.73782e-05
8.73695e-05
8.71762e-05
8.75159e-05
8.73652e-05
8.73415e-05
8.73924e-05
8.7261e-05
8.73568e-05
8.73724e-05
8.72166e-05
8.73538e-05
8.73049e-05
8.72631e-05
8.7363e-05
8.738e-05
8.73405e-05
8.72752e-05
8.74242e-05
3.12988e-06
2.69407e-06
2.85513e-06
1.20463e-05
4.94834e-05
2.73111e-05
3.61666e-05
5.69109e-05
5.5015e-05
5.72818e-05
1.22519e-05
1.17953e-05
2.72528e-05
4.19974e-05
3.89663e-05
2.74842e-05
3.34974e-05
3.12698e-05
2.9282e-05
8.72841e-05
8.72888e-05
8.72968e-05
8.72189e-05
8.6925e-05
8.73068e-05
8.73853e-05
8.73697e-05
8.69468e-05
8.73661e-05
8.7364e-05
8.73256e-05
8.73077e-05
8.72842e-05
8.69949e-05
8.72971e-05
8.7341e-05
8.73288e-05
8.72995e-05
6.18925e-05
5.73366e-05
6.84641e-06
5.86846e-05
1.0021e-05
5.59934e-05
4.1621e-06
6.92705e-06
7.26254e-06
1.0235e-05
9.83264e-06
5.13225e-05
4.3014e-05
2.51204e-05
4.42613e-05
2.25494e-05
4.31608e-05
2.54073e-05
3.81405e-05
2.55371e-05
3.5327e-05
6.03061e-05
5.63403e-05
5.74965e-05
6.22047e-05
3.47028e-06
8.91116e-06
4.64282e-06
3.71935e-06
4.36913e-06
9.29056e-06
5.62059e-05
7.87988e-06
5.61092e-05
5.5628e-05
5.30287e-06
6.07603e-05
5.92713e-05
7.87686e-06
5.52702e-05
5.74701e-05
1.41607e-05
5.59908e-06
8.23373e-06
6.02052e-05
4.72607e-06
9.01981e-06
6.0311e-06
5.3068e-05
5.29913e-05
1.31602e-05
1.51638e-05
5.58827e-05
5.23677e-05
2.11903e-05
1.09342e-05
1.61708e-05
1.10976e-05
5.17512e-05
1.06714e-05
5.00123e-05
4.39547e-05
4.81938e-05
5.07573e-05
5.48622e-05
1.69721e-05
1.36399e-05
1.41396e-05
4.96506e-05
1.45619e-05
1.50833e-05
5.3846e-05
1.64075e-05
2.22043e-05
4.72671e-05
1.81813e-05
2.0187e-05
1.54861e-05
4.8605e-05
5.28349e-05
1.71769e-05
4.63441e-05
2.32203e-05
4.76428e-05
1.60286e-05
5.18254e-05
1.79141e-05
1.73269e-05
4.67163e-05
1.91841e-05
4.54256e-05
4.57847e-05
4.98131e-05
1.82482e-05
1.88589e-05
2.0765e-05
4.16888e-05
5.08177e-05
2.00879e-05
4.11936e-05
4.88046e-05
1.98091e-05
4.47804e-05
4.28932e-05
4.77934e-05
4.6797e-05
1.91682e-05
4.57899e-05
4.17144e-05
3.9163e-05
2.34023e-05
2.1005e-05
2.19309e-05
4.11747e-05
3.91631e-05
2.44594e-05
4.01138e-05
4.0181e-05
2.60264e-05
4.02742e-05
2.28598e-05
3.32706e-05
3.8214e-05
3.47479e-05
3.72712e-05
2.37871e-05
3.43855e-05
2.62472e-05
3.71304e-05
3.66952e-05
3.62108e-05
3.06842e-05
2.9261e-05
3.43679e-05
3.52896e-05
2.63716e-05
3.16062e-05
3.34462e-05
3.11568e-05
3.25288e-05
2.93219e-05
8.71294e-05
8.74273e-05
1.1032e-05
5.03962e-05
2.63625e-05
3.71536e-05
8.73655e-05
8.73992e-05
8.70816e-05
8.70823e-05
8.67115e-05
8.71175e-05
8.72707e-05
8.74042e-05
8.73526e-05
8.71888e-05
8.69947e-05
8.72556e-05
8.75544e-05
8.73544e-05
8.74048e-05
8.72241e-05
8.73722e-05
3.01467e-05
3.21835e-05
3.295e-05
5.45833e-05
4.14547e-05
5.79798e-05
5.41001e-05
3.84297e-05
2.83216e-05
1.26218e-05
1.3097e-05
2.81609e-05
5.63141e-05
8.66789e-05
8.73096e-05
8.74271e-05
8.73703e-05
8.73654e-05
8.72806e-05
8.7366e-05
8.71803e-05
7.12819e-05
8.73679e-05
8.73734e-05
8.68558e-05
8.73518e-05
8.73679e-05
8.70094e-05
8.7538e-05
8.69753e-05
8.66654e-05
1.21595e-05
4.91263e-05
2.73953e-05
3.57508e-05
5.48983e-05
5.49499e-05
5.69238e-05
5.4078e-05
1.21557e-05
1.17067e-05
4.23966e-05
3.93529e-05
2.71515e-05
2.74015e-05
3.38853e-05
3.11782e-05
2.91997e-05
8.71089e-05
8.75709e-05
8.73975e-05
8.61148e-05
8.72033e-05
5.88604e-05
5.40221e-05
5.4508e-05
5.82892e-05
1.27184e-05
1.3196e-05
4.10591e-05
3.80488e-05
3.02196e-05
3.2272e-05
2.82581e-05
3.25497e-05
2.84018e-05
8.66197e-05
8.73432e-05
1.20006e-06
1.89133e-06
7.13524e-07
9.52444e-07
1.26912e-06
1.54693e-06
8.73685e-05
8.73692e-05
8.6811e-05
8.73714e-05
8.71947e-05
8.72687e-05
8.64517e-05
8.73667e-05
8.70258e-05
8.73723e-05
8.73729e-05
8.73535e-05
8.69333e-05
8.7312e-05
8.86807e-05
8.76032e-05
8.72914e-05
8.71492e-05
8.72715e-05
8.73608e-05
8.73707e-05
8.73785e-05
2.92894e-06
3.11035e-06
8.74148e-05
7.45543e-05
8.73626e-05
8.73638e-05
7.23446e-05
8.7364e-05
8.73339e-05
2.73905e-06
2.95738e-06
8.63744e-05
8.73667e-05
8.68712e-05
8.73615e-05
8.67764e-05
8.75287e-05
8.71274e-05
8.737e-05
8.70879e-05
8.69095e-05
8.73336e-05
8.737e-05
8.74061e-05
8.73026e-05
3.40209e-06
8.72755e-05
8.71392e-05
8.73815e-05
8.7264e-05
8.72533e-05
8.7118e-05
8.68514e-05
8.73438e-05
8.74276e-05
8.73675e-05
8.737e-05
8.73668e-05
8.7441e-05
8.71422e-05
8.73651e-05
8.73705e-05
8.70768e-05
8.67955e-05
8.74209e-05
8.71568e-05
2.96388e-06
2.78836e-06
2.72941e-06
8.73474e-05
8.73927e-05
6.71896e-05
8.75131e-05
8.7204e-05
8.53591e-05
8.7335e-05
8.70844e-05
8.72306e-05
8.73728e-05
8.73373e-05
8.73593e-05
6.37288e-05
8.73771e-05
8.7043e-05
8.76685e-05
8.5501e-05
8.73682e-05
8.65498e-05
8.73798e-05
8.63788e-05
8.69931e-05
8.73666e-05
8.71255e-05
9.10291e-05
8.73724e-05
8.64022e-05
8.69629e-05
8.7165e-05
8.44103e-05
8.7345e-05
6.27253e-05
8.7316e-05
8.7369e-05
8.7272e-05
8.6675e-05
8.83474e-05
8.71069e-05
8.73714e-05
8.75774e-05
8.72789e-05
8.74247e-05
8.74243e-05
8.51949e-05
8.73831e-05
6.66557e-05
8.73752e-05
8.73598e-05
8.71507e-05
8.75526e-05
8.71865e-05
8.7347e-05
7.43575e-05
8.67142e-05
5.73975e-05
8.71036e-05
7.24868e-05
8.59059e-05
8.24138e-05
8.7341e-05
8.73609e-05
8.73395e-05
8.73111e-05
8.6628e-05
8.72924e-05
2.01982e-06
2.11367e-06
2.3149e-06
8.72378e-05
8.73736e-05
8.73575e-05
8.81499e-05
8.73381e-05
6.52762e-05
8.73047e-05
8.73626e-05
8.73033e-05
8.6807e-05
8.04638e-05
6.86218e-05
8.74682e-05
8.68331e-05
8.01131e-05
8.7151e-05
8.7493e-05
8.71863e-05
8.73348e-05
8.7371e-05
8.75172e-05
8.66766e-05
8.72447e-05
8.73646e-05
8.73157e-05
8.73618e-05
8.74999e-05
8.73504e-05
8.73669e-05
8.71836e-05
8.71937e-05
6.59188e-05
8.73607e-05
8.71941e-05
8.72968e-05
8.73481e-05
8.6277e-05
8.72444e-05
8.73735e-05
8.65046e-05
8.71258e-05
8.73594e-05
8.7465e-05
8.72007e-05
8.73375e-05
8.68098e-05
8.75397e-05
8.742e-05
8.72433e-05
8.73776e-05
8.67501e-05
8.73303e-05
2.44225e-06
7.42248e-05
8.82593e-05
8.73603e-05
8.72435e-05
8.71494e-05
8.92213e-05
8.72474e-05
8.73299e-05
8.73923e-05
2.17788e-06
1.98173e-06
8.65289e-05
8.73514e-05
8.73993e-05
8.7349e-05
8.73325e-05
7.87662e-05
8.73607e-05
8.73724e-05
2.81901e-06
8.728e-05
8.71445e-05
2.60478e-06
2.46766e-06
8.73746e-05
8.55525e-05
8.62723e-05
8.73727e-05
7.00558e-05
8.2316e-05
8.71753e-07
7.48302e-07
1.03613e-06
8.53281e-05
8.73738e-05
8.73362e-05
7.62386e-05
8.18984e-05
7.48753e-05
7.58508e-05
8.0393e-05
8.6962e-05
8.73637e-05
6.02549e-05
8.66272e-05
8.72072e-05
8.87234e-05
8.73629e-05
7.80915e-05
8.60069e-05
6.91133e-05
8.62585e-05
8.71925e-05
2.13582e-06
2.23398e-06
8.71461e-05
8.60376e-05
8.65183e-05
6.05037e-05
5.87263e-05
8.73383e-05
2.34604e-06
8.17548e-05
7.75814e-05
8.73347e-05
8.73311e-05
8.56519e-05
8.71753e-05
7.75383e-05
8.7087e-05
8.26208e-05
6.32018e-05
6.24837e-05
1.21279e-06
1.17202e-06
1.31146e-06
8.69719e-05
8.71304e-05
7.11702e-05
7.63965e-05
7.40825e-05
7.42638e-05
4.8814e-05
4.74064e-05
8.59402e-05
1.92469e-07
1.42257e-07
9.84696e-08
-8.88373e-07
-9.27726e-07
-1.00208e-06
8.05051e-05
4.85814e-07
3.55076e-07
8.67754e-05
1.96487e-07
-1.00333e-06
6.3501e-07
-1.03628e-06
6.0627e-07
-1.09999e-06
5.9919e-07
)
;

boundaryField
{
    back
    {
        type            empty;
    }
    front
    {
        type            empty;
    }
    ingreso
    {
        type            zeroGradient;
    }
    salida
    {
        type            fixedValue;
        value           uniform 0;
    }
    defaultFaces
    {
        type            zeroGradient;
    }
}


// ************************************************************************* //
