/*--------------------------------*- C++ -*----------------------------------*\
  =========                 |
  \\      /  F ield         | OpenFOAM: The Open Source CFD Toolbox
   \\    /   O peration     | Website:  https://openfoam.org
    \\  /    A nd           | Version:  8
     \\/     M anipulation  |
\*---------------------------------------------------------------------------*/
FoamFile
{
    version     2.0;
    format      ascii;
    class       surfaceScalarField;
    location    "5";
    object      phi;
}
// * * * * * * * * * * * * * * * * * * * * * * * * * * * * * * * * * * * * * //

dimensions      [0 3 -1 0 0 0 0];

internalField   nonuniform List<scalar> 
9048
(
6.98523e-09
-6.37911e-09
-3.30387e-09
2.69775e-09
-1.55471e-09
-1.35835e-09
1.7296e-09
1.18346e-09
8.62889e-09
-2.45109e-09
-6.60867e-09
4.3087e-10
-2.29487e-09
5.14834e-09
1.21109e-09
-4.06457e-09
-4.68257e-09
-3.31639e-09
1.94554e-09
6.05342e-09
3.08202e-09
-2.14855e-09
6.3229e-09
-7.25637e-09
-2.53788e-09
1.92333e-09
1.96207e-09
-1.34753e-09
3.2928e-10
-2.84082e-10
-6.13146e-11
1.61161e-11
5.1308e-09
-3.80235e-09
3.44686e-09
-4.77532e-09
7.65608e-09
-3.62103e-09
-7.04013e-09
3.00507e-09
1.45213e-09
-5.55436e-09
4.08117e-09
2.10709e-11
5.71784e-09
-4.87249e-09
-2.52471e-09
1.67936e-09
-5.69127e-09
2.11385e-09
5.32392e-09
-1.7465e-09
4.81045e-09
4.29361e-09
-2.67751e-09
-6.42655e-09
6.71555e-09
-6.06266e-09
-2.85549e-09
2.2026e-09
-6.73095e-09
5.0964e-09
2.13953e-09
-5.04982e-10
-8.41598e-09
6.37588e-09
2.62792e-09
-5.87814e-10
8.26833e-09
-6.50952e-09
-2.92627e-09
1.16746e-09
7.7909e-09
-6.85099e-09
-3.30865e-09
2.36875e-09
6.23868e-09
-5.48066e-09
-2.69064e-09
1.93262e-09
-6.13739e-09
5.56525e-09
2.39154e-09
-1.81939e-09
-5.44116e-09
5.00308e-09
2.18824e-09
-1.75016e-09
5.57059e-09
-4.94682e-09
-2.29565e-09
1.67188e-09
6.37413e-09
-5.87204e-09
-3.03876e-09
2.53667e-09
-5.85275e-09
5.45143e-09
2.47477e-09
-2.07345e-09
-7.34852e-09
7.13266e-09
3.28604e-09
-3.07017e-09
5.40739e-09
-5.11416e-09
-2.52367e-09
2.23044e-09
5.49469e-09
-5.20266e-09
-2.63112e-09
2.33909e-09
5.62709e-09
-5.32722e-09
-2.69878e-09
2.39892e-09
6.61065e-09
-5.26181e-09
-2.29353e-09
9.44691e-10
7.42375e-09
-5.89508e-09
-2.71387e-09
1.1852e-09
5.83548e-09
-5.39514e-09
-2.70742e-09
2.26707e-09
-5.51125e-09
5.11183e-09
2.37647e-09
-1.97705e-09
6.54599e-09
-5.95577e-09
-2.96553e-09
2.37531e-09
7.53944e-09
-7.06434e-09
-3.70626e-09
3.23116e-09
7.04638e-09
-5.59683e-09
-2.49058e-09
1.04103e-09
6.75703e-09
-5.36985e-09
-2.38787e-09
1.0007e-09
6.87831e-09
-5.46556e-09
-2.42991e-09
1.01716e-09
-6.08462e-09
5.89174e-09
1.94097e-09
-1.74809e-09
-5.31662e-09
2.36658e-09
4.99025e-09
-2.04021e-09
-4.08496e-09
3.64835e-09
-3.46166e-09
3.89827e-09
7.74576e-09
-7.94928e-09
2.76638e-09
-2.56286e-09
2.99942e-09
-3.31792e-09
5.19494e-09
-4.87644e-09
2.75521e-09
-3.1009e-09
4.75605e-09
-4.41036e-09
2.69389e-09
-3.04058e-09
4.67118e-09
-4.32449e-09
-3.85818e-09
-4.31031e-09
4.08354e-09
3.2301e-09
-3.69277e-09
5.55103e-09
-5.08836e-09
2.74647e-09
-3.07541e-09
4.63394e-09
-4.30501e-09
3.05299e-09
-3.36358e-09
5.21368e-09
-4.90309e-09
-3.19657e-09
2.77896e-09
5.26496e-09
-4.84735e-09
-1.6582e-09
1.57717e-09
-5.49706e-09
5.5781e-09
1.49443e-09
-1.76318e-09
-5.32155e-09
5.5903e-09
-8.1767e-09
3.02249e-09
-2.12348e-09
7.27768e-09
3.39097e-09
-3.3353e-09
-4.56777e-09
4.5121e-09
-2.84295e-09
3.28466e-09
2.91596e-09
-3.35767e-09
3.59767e-09
3.80118e-09
-3.52304e-09
-3.87581e-09
5.1483e-09
-6.52954e-09
2.77867e-10
1.10338e-09
-3.48066e-10
3.32683e-10
1.28184e-12
1.41012e-11
-3.99179e-09
-4.41386e-09
3.98873e-09
4.41693e-09
3.97549e-09
-5.14659e-09
-5.67282e-09
6.84392e-09
4.62742e-09
3.35258e-09
-4.49002e-09
-3.48998e-09
3.85394e-09
3.80864e-09
-4.04307e-09
-3.61951e-09
3.08741e-09
-3.91187e-09
-4.41251e-09
5.23697e-09
4.59546e-09
4.60795e-09
-4.84888e-09
-4.35453e-09
-2.30156e-09
2.33827e-09
3.59846e-09
-3.63517e-09
-4.71114e-09
-4.60643e-09
3.7746e-09
5.54298e-09
5.62584e-09
2.44337e-09
-2.42508e-09
-5.64412e-09
4.85617e-09
4.94427e-09
-4.29819e-09
-5.50224e-09
3.50383e-09
-4.56667e-09
-4.9421e-09
6.00494e-09
-2.34958e-09
2.87065e-09
4.28938e-09
-2.2003e-09
2.27412e-09
2.4766e-09
-2.55042e-09
1.14015e-09
1.80688e-09
-1.59366e-09
-1.35337e-09
-1.00925e-09
6.16148e-09
2.77436e-09
-7.92659e-09
-4.17151e-09
-3.80518e-09
3.21477e-09
4.76192e-09
4.03716e-09
3.80504e-09
-4.15228e-09
-3.68991e-09
5.04964e-09
4.7884e-09
-5.19102e-09
-4.64702e-09
2.55404e-09
-1.16193e-09
7.31494e-10
-2.12361e-09
-4.94803e-09
4.23542e-09
4.36096e-09
4.70027e-09
-4.70553e-09
2.68054e-09
-2.67528e-09
4.19736e-09
-4.19248e-09
2.37949e-09
-2.38437e-09
3.76771e-09
6.30655e-09
-4.29655e-09
-5.77771e-09
2.07672e-09
6.00081e-09
-2.67633e-09
-5.4012e-09
6.85871e-09
-4.70763e-09
5.403e-09
-7.55407e-09
-5.54432e-09
-3.87452e-09
4.4987e-09
4.92014e-09
4.12718e-09
-4.5944e-09
-4.77001e-09
-3.83543e-09
4.65728e-09
3.94816e-09
7.47958e-09
-4.85975e-09
-4.09674e-09
1.47691e-09
-5.00364e-09
3.46742e-09
-4.39231e-09
5.92853e-09
-4.5562e-09
-3.15216e-09
3.64208e-09
4.06628e-09
-4.74681e-09
-3.28713e-09
3.80215e-09
4.23179e-09
-4.63612e-09
-3.20878e-09
3.70904e-09
4.13587e-09
-4.47096e-09
-3.09356e-09
3.57243e-09
3.99209e-09
-1.12975e-11
-7.4881e-12
-4.55038e-09
-2.13869e-10
-2.66587e-10
5.03084e-09
3.51776e-09
-3.64569e-09
2.01282e-09
-1.88488e-09
4.00249e-09
1.87472e-09
-7.77398e-10
-5.09981e-09
-3.04107e-10
-7.21855e-09
6.72394e-09
7.98718e-10
-4.52667e-09
4.20388e-09
4.28884e-09
-3.96606e-09
-1.2679e-09
6.21607e-09
2.00125e-10
-4.42495e-09
4.85154e-09
4.01845e-09
-4.44504e-09
-5.38597e-09
3.71834e-09
-4.5725e-09
6.24013e-09
-4.32536e-09
3.05448e-09
-3.97536e-09
5.24624e-09
4.12112e-09
8.44248e-09
-7.6484e-10
-1.17988e-08
-6.71536e-09
4.67131e-09
-5.13605e-09
7.1801e-09
6.91126e-10
3.40089e-09
-1.53798e-09
-3.57918e-10
2.40112e-11
3.34521e-10
-6.14447e-13
-4.18706e-09
-4.2967e-09
3.8285e-09
4.65527e-09
-4.71066e-09
-1.52903e-09
1.90444e-09
4.33525e-09
-4.06158e-09
6.00191e-09
2.91584e-09
-2.7386e-09
4.00891e-09
-4.60561e-09
4.86912e-09
5.38642e-09
-5.12475e-09
3.89854e-10
-3.49632e-10
-4.46288e-12
-3.57591e-11
-2.80828e-09
2.37056e-09
8.06934e-10
-3.69213e-10
5.41151e-09
5.2706e-09
-4.33245e-09
-6.34965e-09
2.73567e-09
-3.22013e-09
-1.15483e-09
1.63929e-09
2.63066e-09
-2.39221e-09
4.62375e-09
-4.8622e-09
-2.99308e-09
3.17878e-09
3.91726e-09
-4.10296e-09
5.28358e-12
-3.72597e-10
9.39605e-12
-4.20907e-09
1.43768e-12
4.45068e-09
-2.43043e-10
5.97954e-09
-4.12906e-09
4.34841e-09
-6.19889e-09
-5.174e-09
5.20787e-09
2.15629e-09
-2.19017e-09
5.55337e-09
-4.2495e-09
4.88534e-09
-6.18921e-09
-4.38655e-09
1.2066e-09
-3.72522e-10
3.55247e-09
-4.94821e-09
4.64402e-09
-4.88335e-09
5.18754e-09
-6.03544e-09
4.243e-09
-5.07927e-09
6.87171e-09
6.42099e-09
-5.80291e-09
6.51649e-09
-7.13457e-09
-5.29631e-09
4.84753e-09
-5.14131e-09
5.59009e-09
-6.72828e-09
4.73111e-09
-5.06353e-09
7.06071e-09
5.50513e-09
-4.47016e-09
5.62398e-09
-6.65894e-09
4.93125e-09
-4.57067e-09
4.68462e-09
-5.04519e-09
-5.39996e-09
4.7406e-09
-5.13921e-09
5.79858e-09
5.04854e-09
-4.51193e-09
4.75853e-09
-5.29514e-09
5.90219e-09
-4.68689e-09
5.8296e-09
-7.0449e-09
4.92864e-09
-4.15118e-09
5.33261e-09
-6.11008e-09
4.82139e-09
-4.4613e-09
4.43854e-09
-4.79863e-09
1.57388e-09
-3.8178e-09
3.75433e-09
-1.51041e-09
5.91372e-09
-4.09227e-09
3.52509e-09
-5.34653e-09
5.28788e-09
5.23316e-09
-4.80998e-09
-5.71106e-09
-7.01734e-10
1.24206e-09
-3.27128e-09
2.73095e-09
5.51769e-09
5.2782e-09
-4.73126e-09
-6.06464e-09
-4.85319e-09
-4.82031e-09
3.91121e-09
5.7623e-09
-4.74956e-09
-4.72726e-09
3.91609e-09
5.56072e-09
-4.52524e-09
-3.30287e-09
4.4657e-09
3.36241e-09
4.25985e-09
3.45268e-09
-4.38641e-09
-3.32612e-09
5.05068e-09
4.66058e-09
-4.63851e-09
-5.07275e-09
4.91975e-09
4.55487e-09
-4.50033e-09
-4.97428e-09
5.15241e-09
4.94936e-09
-4.58367e-09
-5.5181e-09
5.37685e-09
5.15561e-09
-4.80057e-09
-5.7319e-09
5.25085e-09
5.0322e-09
-4.6936e-09
-5.58944e-09
4.22486e-09
-4.65743e-09
-2.34147e-09
2.77404e-09
-5.7071e-09
4.43458e-09
-3.61855e-09
4.89107e-09
7.50869e-09
-5.25476e-10
-9.60612e-12
-6.97361e-09
-2.9495e-09
3.10581e-09
4.02291e-09
-4.17922e-09
5.66901e-09
-4.93917e-09
-9.92708e-10
2.6287e-10
3.79804e-09
1.24483e-09
-3.58617e-09
-1.45671e-09
6.66189e-09
-4.60425e-09
4.88796e-09
-6.9456e-09
-4.23318e-09
2.0728e-09
-8.84695e-10
3.04507e-09
5.78836e-09
-7.66361e-09
7.45183e-09
-5.57658e-09
-1.4288e-09
-2.27875e-09
2.44472e-09
1.26282e-09
2.54489e-09
-4.90559e-09
-2.21029e-09
4.57099e-09
-4.77895e-09
4.30514e-09
-4.72881e-09
5.20262e-09
3.77232e-11
3.86193e-11
-7.63426e-11
-2.60941e-09
-3.476e-10
2.3978e-10
2.71723e-09
-1.66297e-09
2.92429e-09
-6.83e-09
5.56868e-09
3.04528e-10
9.06095e-11
-7.49292e-09
-4.97009e-09
8.78454e-09
3.67847e-09
-8.66233e-10
1.59656e-09
1.0575e-09
-1.78783e-09
1.2618e-09
1.2764e-09
-1.39804e-09
-8.74554e-11
9.34663e-11
-2.64914e-10
2.58904e-10
-3.76835e-09
3.31308e-09
4.58446e-09
-4.1292e-09
-3.05047e-09
-8.88667e-10
3.22336e-09
7.1578e-10
-1.9122e-09
3.32638e-09
-7.65853e-09
6.24435e-09
5.35086e-10
4.46765e-09
-4.72486e-09
-2.77876e-10
2.98699e-09
-3.33182e-09
4.09275e-09
-3.74793e-09
4.735e-09
-1.0731e-09
-3.55624e-09
-1.0566e-10
5.31235e-09
6.7889e-10
-1.95508e-09
-4.03617e-09
2.51157e-09
-1.53809e-09
2.60637e-09
-3.57985e-09
4.94558e-09
-5.2344e-09
5.56246e-09
-5.27365e-09
-3.79569e-10
-4.89031e-11
4.01768e-10
2.67041e-11
5.54993e-09
-5.37478e-09
-4.8522e-09
4.67706e-09
-6.23724e-09
-3.93029e-09
4.99353e-09
-2.27512e-09
-5.61668e-09
4.96228e-09
2.92952e-09
-1.67749e-09
2.68425e-09
-5.78987e-09
4.78311e-09
4.03682e-09
-4.13786e-09
-4.19262e-09
4.29366e-09
1.92119e-09
-9.51446e-10
-1.85803e-09
8.8828e-10
2.07947e-09
4.0224e-09
-2.09939e-09
3.66565e-09
-5.40071e-10
-4.22682e-09
1.10124e-09
-1.40879e-09
-2.52655e-09
1.21892e-09
2.71643e-09
-1.82463e-09
5.14391e-09
-4.97749e-09
-5.58298e-10
1.0315e-09
-3.01108e-09
2.82354e-09
-5.07194e-09
4.7933e-09
3.17931e-09
-3.3397e-09
-5.54671e-09
4.57845e-09
4.80816e-09
-3.96431e-09
-5.4223e-09
6.85554e-10
4.78637e-09
-5.31331e-09
-1.5861e-10
2.6987e-10
4.6136e-11
-2.04307e-10
-1.11699e-10
-2.59762e-09
-4.11178e-09
2.84939e-09
3.86001e-09
4.90696e-09
-3.32696e-09
-4.31861e-09
-2.866e-09
1.27102e-09
-4.97892e-09
6.5739e-09
-3.24045e-09
3.25883e-09
2.33782e-09
-2.3562e-09
4.31613e-09
-3.23057e-09
-7.60878e-09
6.52322e-09
8.28265e-10
-5.50973e-10
9.84506e-10
-4.83246e-09
5.85246e-09
-6.69008e-09
5.67008e-09
-1.22344e-10
4.05813e-11
-2.67869e-10
-4.42874e-09
4.7183e-09
-5.88108e-09
5.59151e-09
-3.5368e-09
4.15816e-09
-5.50393e-09
4.88257e-09
-3.53167e-09
3.21198e-09
-4.64272e-09
4.96241e-09
3.5688e-09
-3.87783e-09
5.01958e-09
-4.71055e-09
-8.37208e-09
3.7424e-10
6.0358e-09
1.96203e-09
-3.18769e-09
-1.25139e-09
1.07699e-09
3.36208e-09
-5.87029e-10
7.78425e-10
-6.26874e-09
6.07735e-09
-2.58328e-09
-1.17186e-10
9.10556e-11
4.93447e-09
-2.55499e-09
-2.37948e-09
-1.84977e-09
9.01108e-09
-8.17056e-09
5.5606e-09
-2.88007e-09
-2.68054e-09
-1.59515e-09
-5.03436e-09
1.91886e-09
-3.31141e-09
1.46755e-09
-2.0666e-09
3.91046e-09
-8.21089e-10
2.93811e-09
-2.81875e-09
4.30295e-09
-2.29013e-09
-2.01282e-09
3.63538e-10
1.31712e-10
4.23975e-09
-2.48973e-09
-1.49831e-09
2.57925e-09
-5.00518e-09
6.01131e-09
-7.06629e-09
6.06016e-09
-2.57723e-09
2.68794e-09
3.74424e-09
-3.85495e-09
-2.4587e-10
3.10349e-10
1.37171e-10
-2.0165e-10
5.92818e-09
-6.56617e-09
1.11498e-09
-4.76988e-10
4.32521e-09
-4.27178e-09
3.14807e-09
-3.32597e-09
4.46876e-09
-4.29087e-09
-5.64985e-10
2.07477e-09
4.11411e-10
-2.73639e-09
-5.72249e-09
5.32311e-09
3.13577e-09
-5.16671e-09
5.09657e-09
5.15155e-09
-5.08141e-09
-3.82568e-09
-5.50495e-09
4.23656e-09
5.09407e-09
1.44673e-10
-1.77867e-10
3.65701e-10
-3.32508e-10
5.51848e-09
-4.52969e-09
5.6283e-09
-6.61708e-09
-4.63806e-09
-3.16966e-09
4.44202e-09
3.36569e-09
-5.30268e-09
4.76535e-09
-5.71344e-09
6.25076e-09
-4.37713e-09
5.03448e-09
-5.57346e-09
4.91612e-09
-1.07194e-09
-3.09259e-09
3.22148e-09
9.43048e-10
4.20432e-09
4.65972e-09
-3.76618e-09
-5.09786e-09
3.30864e-09
-3.63959e-09
4.90951e-09
-4.57855e-09
-2.45253e-10
-2.6202e-10
3.72208e-09
-3.21481e-09
-2.78316e-09
4.29793e-09
2.50627e-09
-4.02104e-09
-4.15855e-09
-3.87055e-10
4.40766e-09
1.37941e-10
2.22335e-09
-2.67164e-09
1.00693e-10
2.80166e-09
-4.10255e-09
-2.35456e-09
3.65544e-09
-1.00888e-08
5.15715e-09
-5.08333e-09
1.0015e-08
-4.35845e-09
-5.80193e-09
4.87335e-09
5.28703e-09
6.34413e-09
6.53706e-09
-7.43793e-09
-5.44325e-09
3.46225e-09
5.20826e-09
-3.38049e-09
-5.29003e-09
-3.09564e-09
-1.16398e-09
3.72034e-09
4.12981e-09
-3.36986e-09
-4.48029e-09
-3.28862e-09
-4.97949e-09
3.38145e-09
4.88666e-09
3.48892e-09
4.66729e-09
-3.8662e-09
-4.29001e-09
4.48149e-09
5.31079e-09
-5.14659e-09
-4.64569e-09
3.85962e-09
5.30077e-09
-4.11258e-09
-5.0478e-09
-3.96734e-09
-5.74053e-09
4.40134e-09
5.30653e-09
-3.14551e-09
-3.91602e-09
3.75441e-09
3.30712e-09
3.47265e-09
5.04283e-09
-3.46342e-09
-5.05206e-09
-3.22055e-09
-4.01024e-09
3.84442e-09
3.38637e-09
-2.98538e-09
-4.11234e-09
2.42133e-09
4.67639e-09
-4.42651e-09
-6.16506e-09
4.97733e-09
5.61424e-09
4.81366e-09
-4.2094e-09
-5.91372e-09
5.30946e-09
-2.44315e-09
-1.40533e-09
2.6094e-09
1.23908e-09
-2.06725e-10
2.13061e-09
-2.26926e-09
3.45381e-10
3.90659e-09
-3.16543e-09
7.06245e-09
-7.80362e-09
-4.90196e-09
-3.8441e-09
5.03192e-09
3.71414e-09
3.36285e-09
-3.45333e-09
5.26466e-09
-5.17418e-09
3.43233e-09
-3.19264e-09
5.18577e-09
-5.42546e-09
-3.25769e-09
3.84834e-09
-5.85283e-09
5.26218e-09
-4.40043e-09
3.88579e-09
-4.81341e-09
5.32806e-09
1.35391e-09
-2.64264e-09
2.53079e-09
-6.52285e-09
6.19347e-09
-6.97562e-09
7.305e-09
-4.44924e-09
-1.98706e-09
4.61167e-09
7.07541e-11
1.40482e-10
-1.42255e-10
-6.89802e-11
5.91408e-09
-5.52343e-09
6.67504e-09
-7.06569e-09
-5.17262e-09
3.62559e-09
-4.7267e-09
6.27373e-09
7.81101e-09
4.9564e-09
-6.42328e-09
3.606e-09
-4.13728e-09
5.60766e-09
-5.07638e-09
-1.08002e-08
6.20852e-09
1.31331e-09
-5.65418e-09
-1.86765e-09
-4.71261e-09
6.09994e-09
3.75056e-09
-5.1379e-09
5.58505e-09
-7.11334e-09
6.00977e-09
4.80823e-09
-5.85651e-09
4.90789e-09
-4.18285e-09
5.40557e-09
-4.44327e-09
-4.08803e-09
5.27875e-09
-4.33623e-09
4.64758e-09
-5.82462e-09
4.64968e-09
-4.20454e-09
5.53089e-09
-4.31172e-09
-5.21954e-09
6.63815e-09
-5.38595e-09
-5.72386e-09
7.34256e-09
-6.04521e-09
4.46357e-09
-5.57434e-09
4.59969e-09
-5.71521e-09
7.3934e-09
4.55212e-09
-6.23031e-09
-5.03126e-09
6.3286e-09
-5.12301e-09
4.70942e-09
-5.52764e-09
5.02255e-09
-4.60484e-09
5.85593e-09
-4.53971e-09
4.17429e-09
-4.8958e-09
4.44185e-09
-3.15852e-10
-2.18583e-09
-8.15968e-11
-5.67555e-09
7.1371e-09
-5.82e-09
-7.22798e-09
-8.79978e-10
7.01693e-09
1.09103e-09
-4.68293e-09
-5.51955e-09
4.00306e-09
6.19942e-09
3.97938e-09
4.22507e-09
-5.21746e-09
6.95531e-10
-7.42247e-10
4.26896e-10
-3.8018e-10
4.91445e-09
2.28787e-09
-2.46619e-09
-4.73612e-09
4.42177e-09
-7.80506e-09
8.06285e-09
-4.67956e-09
4.98207e-09
-5.92255e-09
4.40274e-09
2.39889e-09
-3.13546e-09
-3.43486e-09
4.17143e-09
-2.71135e-09
5.99726e-09
-5.35369e-09
2.06777e-09
-5.36347e-09
1.74001e-09
-3.82357e-09
3.44056e-09
-7.10991e-09
-5.91166e-09
-5.38249e-09
4.50906e-09
6.78509e-09
-4.6983e-09
4.38617e-09
4.89312e-09
-4.58099e-09
2.14903e-09
4.36269e-09
-2.18652e-09
-1.11271e-09
-5.91253e-10
-7.0214e-09
8.72536e-09
4.0121e-09
6.47242e-09
-5.07302e-09
3.23533e-09
-2.9434e-09
4.06869e-09
-4.36063e-09
6.43973e-09
4.5264e-10
-6.22394e-09
-6.68436e-10
-6.91054e-09
6.75884e-09
1.99699e-10
-4.80048e-11
-5.04309e-09
-5.91193e-09
5.78831e-09
-7.55576e-09
-9.46845e-10
7.1148e-09
1.38781e-09
-2.49764e-09
2.17245e-09
-6.26258e-10
1.97978e-09
6.16061e-09
4.88502e-10
-6.21055e-09
-4.08507e-09
5.80261e-09
4.49301e-09
5.5758e-09
4.78611e-09
-4.52304e-09
-5.83887e-09
-2.2536e-09
2.05187e-09
3.83368e-09
-3.63195e-09
-5.06244e-09
5.06613e-09
4.03313e-09
3.81976e-09
6.31803e-09
-4.58442e-09
2.13466e-09
7.04743e-09
-1.05011e-09
-8.13198e-09
-7.63022e-11
1.19493e-09
5.94851e-09
-4.70896e-09
3.62957e-09
-5.30645e-09
6.62358e-10
6.54068e-09
-1.89659e-09
5.28925e-09
5.79848e-09
-6.14215e-09
-5.06989e-09
-6.33603e-09
4.77097e-09
6.63494e-09
3.51725e-09
3.51287e-09
-3.39528e-09
-3.63484e-09
4.68043e-09
5.52102e-09
-4.27838e-09
-5.92306e-09
-6.37021e-09
7.06467e-09
7.01439e-09
-7.70885e-09
-6.78025e-09
2.09096e-09
4.09988e-09
5.89413e-10
-2.89297e-09
7.49483e-10
-9.06983e-10
-6.06622e-09
7.69223e-09
4.97723e-09
-6.60323e-09
4.48388e-09
7.07826e-09
-6.01221e-09
-3.25657e-09
-5.58239e-09
3.89075e-09
-3.94207e-09
-6.91797e-09
4.82461e-09
4.37807e-09
7.1217e-09
-5.59758e-09
4.52413e-09
7.38429e-09
-5.48742e-09
-3.69238e-09
-5.80933e-09
4.2054e-09
3.80374e-09
5.95562e-09
-4.83072e-09
2.63279e-09
3.2864e-09
-3.10237e-09
-2.81682e-09
-4.95464e-09
-7.61164e-09
5.838e-09
-3.91036e-09
-5.82934e-09
4.33973e-09
3.47015e-09
5.41946e-09
-3.95837e-09
4.33066e-09
6.48427e-09
-5.30981e-09
3.38714e-09
5.65931e-09
-3.99791e-09
-5.24945e-09
-6.59635e-10
1.06205e-09
4.84704e-09
1.23577e-09
4.96115e-09
6.88295e-09
-1.04852e-09
-5.65753e-09
-1.76898e-10
5.63213e-09
-1.4853e-10
-5.66016e-09
1.76562e-10
6.51329e-09
-1.16246e-10
-6.55959e-09
1.62545e-10
7.23743e-09
-1.73095e-10
-8.01153e-09
9.47197e-10
-6.17616e-09
4.06212e-09
1.49318e-09
6.20857e-10
5.13344e-09
-5.69723e-09
2.32568e-10
3.31228e-10
-6.6465e-09
6.75918e-09
-1.1133e-10
-1.35289e-12
-6.9966e-09
6.9422e-09
1.70486e-11
3.73509e-11
-6.65739e-09
6.40192e-09
-1.8273e-10
4.38196e-10
-7.81533e-09
6.81391e-09
2.02456e-09
-1.02315e-09
-8.19667e-09
8.32071e-09
-1.85645e-10
6.15967e-11
-6.14072e-09
6.24174e-09
-2.02765e-10
1.01742e-10
-5.27047e-09
6.24202e-09
1.02114e-11
-9.8176e-10
-5.88115e-09
4.86336e-09
1.42401e-09
-4.06223e-10
-5.96549e-09
4.85633e-09
-4.56111e-10
1.56527e-09
-5.3982e-09
6.394e-09
7.72014e-12
-1.00352e-09
-7.89055e-09
7.64646e-09
-8.02463e-11
3.24334e-10
-5.18523e-09
6.04681e-09
1.79179e-11
-8.79492e-10
-6.14152e-09
6.18622e-09
-7.37553e-11
2.90497e-11
-6.26996e-09
6.3632e-09
-7.03467e-11
-2.28912e-11
-6.12803e-09
6.12363e-09
-1.19739e-10
1.24139e-10
-7.69178e-09
7.85506e-09
-1.06574e-10
-5.67098e-11
7.09734e-09
-8.56703e-09
-1.00512e-11
1.47975e-09
8.53981e-09
-8.28689e-09
2.2458e-10
-4.77508e-10
-4.22121e-09
-1.68422e-09
4.48096e-09
1.42447e-09
6.11375e-09
-6.60133e-09
-9.94494e-11
5.76381e-09
1.43724e-09
-5.62388e-09
-4.53081e-09
1.00729e-09
6.09747e-09
-6.42742e-09
-4.90445e-09
-6.68506e-09
6.25224e-09
4.03882e-09
1.95745e-09
4.73074e-09
-4.17371e-09
-2.51448e-09
-1.59869e-09
-2.27326e-09
-5.25921e-09
5.92412e-09
-5.67008e-09
4.85451e-09
-5.56246e-09
5.99721e-09
-2.09709e-09
5.7603e-09
1.25124e-09
-3.83315e-09
5.77239e-09
-5.02541e-09
3.08617e-09
1.78774e-10
-2.26676e-11
-1.56107e-10
3.79622e-09
5.839e-09
-4.34733e-09
4.12315e-09
6.44198e-09
-5.04744e-09
-3.80401e-09
-5.53715e-09
4.48797e-09
-6.20696e-09
7.9581e-09
-6.72122e-09
2.44658e-10
-4.05323e-10
7.66935e-09
-6.71733e-09
6.90187e-09
-4.01769e-09
4.69012e-09
-4.78206e-09
-1.50321e-09
-5.37675e-09
-3.7341e-09
4.36129e-09
-3.10683e-09
-5.2319e-09
3.81349e-09
2.96535e-09
5.13829e-09
-3.84379e-09
3.646e-09
5.73636e-09
-4.33168e-09
3.56042e-09
5.59441e-09
-4.23508e-09
-2.04462e-09
5.39533e-09
-5.16493e-09
-5.13247e-09
4.20224e-09
6.09516e-09
1.52157e-09
-2.39172e-09
-1.61958e-09
-1.79602e-10
-1.05882e-10
5.85095e-11
2.26974e-10
-3.51094e-09
3.68207e-09
5.74259e-09
5.05758e-09
4.62694e-09
-5.7721e-09
-3.91242e-09
6.3637e-09
-7.22237e-09
-2.81189e-09
3.67056e-09
1.41971e-09
-6.33221e-09
5.2595e-10
-3.92499e-10
3.69421e-11
-3.04564e-09
-3.64684e-09
2.92413e-09
-4.74594e-09
-9.99394e-10
5.15729e-09
5.88047e-10
6.85882e-09
-5.886e-10
-3.42044e-10
5.78351e-09
-4.72906e-09
5.97031e-09
-7.02475e-09
5.23112e-09
-3.86858e-09
4.57543e-09
-5.93797e-09
3.66746e-09
6.05788e-09
-4.34849e-09
3.52178e-09
5.81097e-09
-4.18033e-09
3.57864e-09
5.91385e-09
-4.24163e-09
-2.03046e-09
2.87634e-09
-4.08633e-09
-4.49402e-09
-4.04416e-09
5.04977e-09
3.48842e-09
4.76249e-09
5.47271e-09
-3.96959e-09
-6.26562e-09
2.47343e-09
-6.36758e-09
-2.20635e-09
6.1005e-09
-1.05675e-09
4.21784e-09
-4.76973e-09
3.41376e-09
-3.95802e-09
5.31399e-09
-2.62716e-10
4.34331e-09
1.35761e-09
-4.23297e-09
-2.98167e-09
-9.99593e-10
4.35024e-09
1.66997e-09
-1.58088e-09
-4.43934e-09
-6.28498e-09
-4.14417e-09
5.71383e-09
4.71532e-09
-4.95185e-09
4.38613e-09
-4.5591e-09
5.12481e-09
7.10878e-09
2.4119e-09
-3.48928e-09
-6.0314e-09
-7.63581e-09
6.95102e-09
-2.04332e-09
2.7281e-09
-5.52339e-09
7.01016e-09
-4.99771e-09
4.30121e-10
-2.20722e-09
6.27338e-09
2.97445e-09
-6.58813e-09
-2.6597e-09
-7.3101e-09
3.76112e-09
-3.42199e-09
6.97097e-09
-5.25312e-09
-2.66205e-10
2.69875e-10
5.18455e-09
1.96216e-09
-3.57565e-09
-3.57107e-09
-5.35001e-09
6.49599e-09
-4.05283e-09
2.90685e-09
-5.44135e-09
4.70526e-09
5.17067e-09
3.19385e-09
-7.4764e-09
6.41721e-09
-2.45602e-09
1.5551e-09
-1.78524e-09
2.68616e-09
-5.68612e-09
9.92038e-10
5.03645e-09
-3.42373e-10
-1.7893e-09
8.27901e-09
-8.33949e-09
-3.69103e-09
-3.56382e-09
4.65723e-09
-2.93796e-09
4.52048e-09
-6.05348e-09
-3.04532e-09
4.69128e-09
-6.28208e-09
-3.1175e-09
4.80831e-09
-6.43762e-09
-2.99316e-09
4.60708e-09
-6.17011e-09
-2.41031e-09
-4.88525e-09
2.93469e-09
-3.54164e-09
5.4922e-09
-4.59866e-09
6.30984e-09
4.5622e-09
-5.57828e-09
-7.19838e-09
8.56846e-09
4.2082e-09
-1.03703e-10
-6.15173e-10
-5.09507e-12
7.23971e-10
-4.49174e-09
6.09647e-09
-7.97494e-09
5.54259e-09
1.1765e-09
-6.06483e-09
-6.54266e-10
-6.84973e-09
-1.57235e-09
7.35105e-09
1.07103e-09
-7.08419e-09
-1.09751e-09
-1.49696e-11
-5.71939e-09
-1.02156e-09
6.00225e-10
-5.62557e-09
-1.28811e-09
9.48194e-10
-4.30218e-09
-8.59636e-10
-1.08653e-10
-4.40411e-09
-8.84461e-10
-1.09624e-10
5.82859e-09
1.43325e-09
-1.05332e-09
5.83748e-09
1.08869e-09
1.71159e-10
4.33707e-09
5.09928e-09
-5.16008e-09
-4.27627e-09
5.27979e-09
-5.53413e-09
2.41767e-09
-2.16333e-09
-3.15388e-09
-1.40893e-09
4.96229e-10
5.17304e-09
-5.34524e-09
-3.24031e-10
-4.85554e-09
-6.53648e-09
6.01725e-09
-3.24978e-09
5.51452e-09
-7.03476e-09
-2.14446e-10
1.00796e-10
-3.22394e-10
5.46099e-09
4.93537e-10
-4.93762e-11
-8.38286e-11
-5.48556e-10
6.4425e-09
1.34348e-09
6.35325e-10
-5.9515e-09
-8.59984e-10
4.07518e-10
-5.6063e-09
-4.98452e-10
-4.23992e-10
6.24715e-09
9.36026e-10
-1.20621e-10
4.05431e-10
-4.19601e-10
6.13553e-09
6.85996e-10
1.06866e-09
-7.13208e-09
-1.7519e-09
-1.65639e-10
5.95808e-10
3.52184e-11
6.52845e-11
-9.23828e-11
2.06101e-10
3.91313e-11
8.49092e-11
7.0413e-10
-5.58826e-09
-9.97014e-10
-1.17372e-10
-2.11535e-10
-5.89708e-11
1.36519e-11
-2.5221e-10
5.72838e-09
5.70643e-10
-3.38082e-10
6.20667e-09
4.94611e-10
-3.31957e-10
6.05247e-09
4.65715e-10
-3.602e-10
5.94978e-09
5.34041e-10
-4.30757e-10
7.50997e-09
7.75851e-10
-7.07699e-11
4.35495e-11
7.22608e-10
-7.93241e-09
-1.07709e-09
9.57859e-10
-1.18871e-09
-1.32385e-09
5.96766e-09
-3.09092e-10
1.38397e-09
-7.04253e-09
-4.19201e-09
1.6913e-09
-1.02778e-09
3.5285e-09
-2.71537e-09
6.76218e-09
1.72559e-09
-4.05883e-09
5.26017e-09
-5.3884e-09
8.15707e-10
-3.6634e-09
-7.50473e-11
2.92274e-09
-6.47751e-09
-1.61135e-09
4.53055e-10
3.9774e-09
-4.02407e-09
-3.28514e-09
-3.50585e-09
-6.98171e-09
6.91119e-09
3.57637e-09
3.24023e-10
5.50292e-09
-5.1314e-09
-6.9555e-10
-3.61134e-09
-6.00432e-09
2.13176e-09
3.68353e-09
-3.08019e-09
-2.7351e-09
-3.87764e-09
-4.8407e-09
2.43337e-09
-3.63417e-09
5.69122e-09
-7.60138e-09
-1.26297e-09
1.82408e-09
3.66117e-09
-4.22228e-09
-5.35568e-09
-5.50874e-09
6.01221e-09
-2.36832e-09
-7.45095e-09
5.40991e-09
4.40936e-09
9.27798e-10
3.8901e-09
-4.8179e-09
1.1884e-09
3.8436e-09
-5.032e-09
1.52018e-09
5.21607e-09
-6.73625e-09
-3.55491e-09
3.25596e-09
-4.13075e-09
4.42969e-09
-4.16524e-09
4.491e-09
-5.61368e-09
5.28792e-09
2.72545e-09
-2.92957e-09
5.06747e-09
4.08863e-09
-3.73722e-09
4.65212e-09
-5.00352e-09
-3.77798e-09
5.01013e-09
3.61506e-12
-3.47057e-09
4.48281e-09
2.96714e-09
-2.39448e-09
3.12465e-09
-1.04602e-09
4.62776e-09
-1.73351e-10
-4.6747e-11
-5.70173e-09
5.61677e-09
7.14964e-09
3.53196e-09
5.49591e-09
-4.69079e-09
1.48359e-10
-2.82769e-10
3.8055e-10
-2.4614e-10
6.28625e-10
-6.37665e-09
-8.18138e-10
4.83786e-09
3.06827e-09
-5.0826e-09
-5.9094e-09
-4.6213e-09
5.61747e-09
4.91323e-09
3.71887e-09
-3.79858e-09
6.89362e-09
-6.37815e-09
-1.95323e-09
7.75623e-10
7.25628e-09
-7.39846e-09
-3.83298e-10
-5.58587e-09
3.35873e-09
7.5304e-09
-5.30327e-09
-7.279e-09
-4.68113e-09
5.43727e-09
6.8708e-09
4.24163e-09
-5.19835e-09
-6.96785e-09
5.10454e-09
5.3884e-09
-5.15399e-09
-3.46189e-09
4.21545e-09
-6.13786e-09
-3.94042e-09
4.90565e-09
4.85199e-10
-2.50823e-09
-3.71454e-10
-6.02381e-09
3.94318e-09
-3.33879e-09
5.41942e-09
6.0541e-09
9.28622e-10
-6.3541e-09
-4.47742e-09
1.69214e-10
-2.22134e-09
6.68083e-09
-5.3276e-09
-5.73624e-09
3.82364e-09
-6.17586e-09
4.96181e-09
5.75039e-09
3.90039e-09
-3.75524e-09
5.82159e-09
-5.96674e-09
-7.17959e-10
-7.58524e-09
8.38214e-09
-7.89374e-11
2.05811e-10
5.76864e-09
7.84396e-10
3.46439e-10
5.55135e-09
5.41939e-10
-6.65982e-09
4.47252e-09
-4.44261e-09
6.62992e-09
3.7179e-09
2.30343e-09
-1.41867e-09
-4.60266e-09
3.94228e-09
5.2009e-09
-3.42757e-09
-5.71561e-09
-5.71432e-09
1.30548e-09
-2.07468e-09
6.48352e-09
-8.07175e-09
5.51481e-09
1.3697e-09
1.18724e-09
8.71802e-10
3.6633e-09
-6.05248e-09
1.51738e-09
3.58459e-10
1.33893e-09
-1.30195e-09
-3.95435e-10
-6.28289e-09
-6.33312e-10
-4.24254e-10
7.34046e-09
-5.69828e-09
-3.46558e-09
4.2619e-09
-4.23134e-09
4.66071e-09
-5.98875e-09
5.55938e-09
-4.55344e-09
-4.82951e-09
4.70002e-09
4.17676e-09
-3.91821e-09
3.20236e-09
-3.46091e-09
4.87308e-09
-4.19681e-09
5.1853e-09
-5.86156e-09
2.90797e-10
-1.32907e-10
-4.90383e-09
4.45663e-10
-4.2034e-10
-5.20864e-10
4.95541e-10
-3.29697e-09
3.92425e-09
-3.62036e-09
3.59615e-09
-4.02076e-09
6.80633e-09
-6.38172e-09
5.18403e-09
3.88147e-09
-5.18436e-09
-3.88113e-09
-9.2691e-11
3.78309e-10
5.66128e-09
1.58427e-09
-1.86956e-09
-5.37599e-09
5.39571e-09
-6.07427e-09
5.53307e-09
-1.02024e-09
-2.69381e-09
5.24313e-09
-7.95031e-09
1.21406e-08
-9.43343e-09
4.0739e-09
-4.07302e-09
-1.09891e-09
1.09803e-09
3.29426e-09
5.10631e-09
-4.33845e-09
2.09497e-10
9.85215e-11
-7.41147e-09
7.10345e-09
5.13557e-09
-7.15328e-09
5.21156e-09
4.28286e-10
7.89904e-09
-2.16585e-09
-4.07723e-09
4.67724e-09
-5.62543e-09
2.3607e-09
-2.38092e-09
-3.67081e-09
4.93619e-09
1.27682e-09
-5.34122e-09
7.24148e-09
3.59364e-10
-7.61045e-09
1.24148e-10
-2.32996e-10
-6.11245e-09
5.96264e-09
1.07761e-09
-5.84076e-09
5.5466e-09
1.48256e-09
-7.89306e-09
7.68666e-09
1.72657e-09
7.26574e-09
-6.16761e-09
5.89248e-09
1.05356e-09
3.97762e-11
-4.7632e-09
6.98306e-09
-8.59628e-09
1.35852e-10
1.47737e-09
-4.10551e-09
3.81712e-09
5.10977e-09
4.13948e-09
-3.82939e-09
-4.82383e-09
4.51374e-09
5.10484e-09
7.81871e-09
-5.90916e-09
-4.07894e-10
-5.03277e-10
3.98341e-10
5.1283e-10
-4.37779e-09
-1.10255e-09
6.43266e-10
4.83708e-09
-2.43762e-10
-1.28867e-11
3.21505e-10
-6.4856e-11
3.7532e-09
-4.67724e-09
4.01021e-09
-1.35151e-09
6.69949e-09
3.13303e-10
3.10108e-09
5.86504e-10
-6.27527e-09
5.49501e-09
6.61775e-09
-3.47756e-09
4.05421e-09
5.25195e-09
4.73954e-09
-4.13024e-09
-5.01342e-09
4.62635e-09
-4.03463e-09
-4.8939e-09
-4.14764e-09
3.09023e-09
-4.66199e-09
3.3937e-09
-5.4766e-09
-4.76683e-09
-2.34266e-09
4.19056e-09
3.69469e-09
2.59213e-09
-5.13104e-09
-4.54528e-09
3.34559e-09
-3.88914e-09
-5.08202e-09
4.09369e-09
-2.63382e-09
-4.40936e-09
6.73339e-09
-5.84859e-09
-3.96209e-09
4.38771e-09
1.70615e-09
-2.57095e-09
8.70314e-10
7.78763e-10
7.60963e-11
-9.82899e-10
1.28041e-10
-8.51283e-10
-5.60508e-09
-7.71619e-10
7.39234e-09
9.37954e-11
4.87118e-09
4.19673e-09
-4.78942e-09
-4.27849e-09
-5.21782e-09
3.53834e-09
-2.80632e-09
4.48579e-09
-8.82625e-09
6.16731e-09
6.25509e-09
-2.26769e-10
7.07773e-09
6.45951e-09
7.78101e-10
-1.92526e-09
-1.11188e-10
-5.32032e-10
5.39518e-10
-5.16549e-09
4.35364e-09
6.0353e-09
-5.22345e-09
-1.50956e-09
2.24296e-09
-1.77771e-09
1.04431e-09
1.67635e-09
-1.50108e-09
-5.20963e-09
-2.80807e-09
-1.08058e-09
3.97164e-09
-4.17021e-09
-3.0984e-09
1.54987e-09
4.38753e-09
-1.10215e-09
-4.83525e-09
-7.65746e-09
5.16578e-09
-4.09569e-09
2.96357e-09
6.11418e-09
-5.58524e-09
-5.30597e-09
5.31294e-09
1.03166e-10
-4.68576e-10
-1.37574e-10
5.02985e-10
-5.48073e-09
3.56737e-09
-5.45619e-09
5.40126e-09
1.73128e-09
7.45826e-10
6.85602e-09
3.66897e-09
-3.58431e-09
4.14945e-09
-4.23412e-09
-6.58964e-09
4.32761e-09
4.75334e-09
-4.17116e-09
4.10753e-09
-4.68971e-09
-5.27131e-09
4.63226e-09
-4.76786e-09
5.40691e-09
2.2608e-09
-1.95873e-09
6.52232e-09
-6.82439e-09
4.5353e-09
-3.04643e-09
-4.82858e-09
6.68038e-09
-6.77983e-09
-5.61576e-09
-4.28336e-09
4.59491e-09
4.15202e-09
5.58503e-09
-5.61589e-09
-4.68174e-09
-5.71203e-09
5.63273e-09
5.66435e-09
4.15686e-09
-4.12314e-09
-4.12174e-09
4.25799e-09
-4.21945e-09
-4.22139e-09
-5.02233e-09
5.53113e-09
4.29942e-09
-4.6094e-09
5.23473e-09
4.02225e-09
5.42728e-09
-6.01034e-09
-4.63648e-09
3.91321e-09
-4.1263e-09
-3.99146e-09
5.6418e-09
-5.75898e-09
-5.60668e-09
3.96871e-09
-3.34653e-09
-6.90848e-09
-1.10383e-09
6.63834e-09
1.37396e-09
1.12784e-09
-3.66098e-09
7.37564e-09
-5.2903e-09
4.57656e-09
-5.04955e-09
5.15936e-09
-4.60775e-09
4.49795e-09
6.5129e-11
-7.8043e-09
7.83769e-09
-4.09705e-09
4.14431e-09
1.08058e-09
-1.36338e-09
1.47395e-09
-1.96859e-09
-8.35732e-10
-1.08015e-09
7.13788e-10
1.2021e-09
6.59212e-09
-4.71128e-09
4.0987e-09
-5.10415e-09
-4.3501e-09
4.85102e-09
4.60322e-09
3.50934e-10
-4.70209e-11
2.96085e-09
-4.82458e-09
6.49115e-09
-5.86156e-09
-4.10805e-09
-4.84106e-09
-4.45413e-10
6.65525e-09
-1.36878e-09
-4.76087e-09
3.99253e-09
6.49493e-09
-5.72659e-09
3.69661e-09
3.36065e-09
-3.31736e-09
-3.7399e-09
5.89756e-09
-4.42142e-09
-6.25509e-09
2.283e-09
-3.60857e-09
-1.54575e-09
2.87133e-09
1.2227e-09
-1.09216e-09
1.17045e-09
-1.30099e-09
4.50581e-09
-4.90242e-09
-3.59311e-09
3.98972e-09
4.937e-09
-5.67221e-09
7.59392e-09
-5.09268e-09
-5.35875e-09
6.02648e-09
8.1101e-09
-6.54546e-09
3.61939e-09
2.33336e-09
-1.67972e-09
6.10159e-10
-1.2638e-09
-8.91732e-10
-4.4807e-10
5.4137e-09
-2.35319e-09
2.78276e-09
-5.5015e-09
-5.00654e-09
-3.31519e-09
4.2578e-09
4.06393e-09
-4.0097e-09
-5.91666e-09
-2.61396e-09
2.5955e-09
2.53003e-09
7.93571e-10
-3.79547e-09
4.22162e-09