/*--------------------------------*- C++ -*----------------------------------*\
  =========                 |
  \\      /  F ield         | OpenFOAM: The Open Source CFD Toolbox
   \\    /   O peration     | Website:  https://openfoam.org
    \\  /    A nd           | Version:  8
     \\/     M anipulation  |
\*---------------------------------------------------------------------------*/
FoamFile
{
    version     2.0;
    format      ascii;
    class       surfaceScalarField;
    location    "5";
    object      phi;
}
// * * * * * * * * * * * * * * * * * * * * * * * * * * * * * * * * * * * * * //

dimensions      [0 3 -1 0 0 0 0];

internalField   nonuniform List<scalar> 
11624
(
-7.81314e-09
8.05229e-09
9.41716e-11
-3.33326e-10
-7.21919e-09
-2.13471e-10
-3.80474e-10
-2.11613e-09
1.50214e-10
1.8619e-09
1.04007e-10
8.67043e-09
-7.59831e-09
1.88849e-09
-2.96061e-09
-6.11196e-09
5.77296e-09
6.8156e-12
3.32183e-10
-5.95834e-09
4.23835e-09
1.36249e-09
3.57499e-10
-1.40567e-09
-2.95558e-10
-2.96003e-09
4.66126e-09
-9.23233e-10
2.37785e-09
3.12412e-09
-4.57874e-09
2.99849e-09
-2.33257e-09
-3.31924e-09
2.65333e-09
-3.31335e-09
-1.60589e-09
2.60544e-09
2.3138e-09
5.04468e-09
-4.65432e-09
-1.085e-10
-2.81863e-10
1.97719e-09
4.74454e-09
-2.00316e-09
-4.71857e-09
-2.7835e-09
-4.26666e-09
2.28235e-09
4.76781e-09
-3.98248e-09
5.12825e-09
-1.15737e-09
1.16012e-11
-1.57376e-09
4.38583e-09
-3.9111e-09
1.09903e-09
-3.95514e-09
2.79522e-09
-2.6973e-09
3.85722e-09
4.14869e-09
-4.13728e-09
-2.92272e-11
1.78195e-11
-3.67024e-09
4.75716e-09
-1.14671e-09
5.97979e-11
-2.75082e-09
3.84126e-09
-4.49591e-09
3.40547e-09
-3.20728e-09
-1.57393e-09
1.93394e-09
2.84727e-09
3.33062e-09
-3.77101e-09
2.60783e-10
1.79608e-10
-3.60715e-09
4.4267e-09
-3.70834e-10
-4.48723e-10
5.30135e-09
-5.35936e-09
8.24055e-11
-2.43937e-11
6.2613e-09
-2.06676e-09
1.01787e-09
-5.2124e-09
4.99033e-09
-4.68503e-09
-2.93219e-10
-1.20815e-11
-4.82056e-09
1.41363e-09
4.26898e-09
-8.6205e-10
2.45197e-09
-3.97324e-09
-3.38137e-09
4.90264e-09
2.54206e-09
-2.36887e-09
-3.13004e-09
2.95685e-09
-2.73249e-09
3.36276e-09
-4.24772e-09
3.61745e-09
-5.83205e-09
4.53397e-09
-3.94624e-09
5.24431e-09
5.26724e-09
-3.46977e-10
7.00685e-11
5.19067e-09
-1.82948e-10
2.93632e-10
-5.46729e-09
5.04162e-09
5.36166e-10
-1.10503e-10
-5.45674e-09
4.60825e-09
1.01308e-09
-1.64587e-10
5.47659e-09
-2.42466e-10
3.31106e-11
-4.25757e-10
3.1506e-12
-5.00573e-09
5.93321e-10
-2.72625e-10
-7.64014e-10
4.87059e-09
-5.44697e-09
1.3404e-09
-3.60544e-09
3.27391e-09
-7.13897e-10
2.32153e-10
-3.91513e-09
1.74341e-09
-1.22119e-09
3.39291e-09
2.60013e-09
-4.14801e-09
-2.4117e-09
3.95957e-09
1.62495e-10
6.90761e-11
7.82072e-09
9.70083e-11
-4.83625e-09
-6.2012e-10
5.41628e-09
-3.3947e-10
-6.15752e-09
1.08071e-09
2.06603e-09
-1.80793e-09
-2.87534e-09
2.61724e-09
-9.17567e-09
-2.24793e-10
2.18127e-09
3.1937e-09
9.05699e-10
-1.72092e-09
-2.37848e-09
8.57956e-09
-7.07272e-09
4.88523e-09
-6.39207e-09
4.22478e-09
-3.84426e-09
3.01397e-09
-3.39449e-09
-1.85154e-09
-5.75202e-10
3.10612e-10
3.8503e-09
-4.20058e-09
-4.96726e-09
5.31754e-09
1.07519e-09
-1.04318e-09
3.55648e-09
-3.58849e-09
-3.58783e-09
-1.08082e-09
4.68782e-09
-1.91729e-11
3.22145e-09
5.07586e-09
-5.41002e-09
-2.8873e-09
6.691e-10
-4.53364e-10
2.44882e-10
-4.60618e-10
1.95447e-09
-8.56607e-10
5.0759e-09
-6.17377e-09
-2.10238e-09
2.5729e-09
8.19992e-09
-5.33442e-09
1.6301e-09
-1.37347e-10
3.84166e-09
3.38327e-09
-3.70145e-09
8.2572e-10
-5.0753e-10
-2.94102e-09
3.78248e-09
1.71968e-09
-2.56115e-09
4.60844e-09
-3.97466e-09
-2.83478e-09
2.201e-09
-6.13118e-10
1.52095e-09
-5.09511e-09
4.18727e-09
-7.05686e-09
5.96474e-09
-3.1406e-09
4.23272e-09
1.59469e-09
-7.38683e-10
-3.78767e-09
2.93165e-09
-2.22463e-10
2.40703e-10
-2.37801e-10
2.19561e-10
-1.64158e-09
4.32085e-09
-3.6025e-09
2.38644e-09
-3.81994e-09
3.37138e-09
-1.93788e-09
-4.68209e-09
-8.75725e-12
3.92683e-09
2.18754e-10
2.29793e-10
-2.25964e-10
-2.22584e-10
2.7589e-09
7.28594e-09
-1.06676e-08
6.22771e-10
2.76287e-09
-2.81907e-09
-3.41753e-09
3.47373e-09
1.68653e-09
4.82388e-09
-1.3318e-09
-5.17861e-09
3.90799e-09
-3.50908e-09
-3.52861e-09
3.1297e-09
-1.02475e-09
6.72772e-11
1.48417e-09
-5.2669e-10
-4.67371e-09
-2.63865e-09
3.03369e-09
4.27867e-09
-2.70618e-09
-3.38982e-09
3.3352e-09
2.76081e-09
-4.86202e-09
4.59796e-09
-6.2215e-10
8.86216e-10
-5.07764e-09
-7.81781e-09
5.29714e-09
-2.89049e-09
2.75825e-09
3.55771e-09
-3.42546e-09
-1.50001e-09
3.22013e-09
-4.15457e-09
2.43445e-09
-3.32469e-09
7.6427e-10
-5.71647e-09
-2.51386e-09
5.42841e-10
-4.53804e-09
-2.46011e-09
5.28579e-10
-4.45985e-09
-2.39773e-09
5.12969e-10
-4.36066e-09
-2.89688e-09
6.43946e-10
-5.11391e-09
5.01071e-09
-5.16938e-09
3.53695e-10
-1.95024e-10
-3.5713e-09
8.40809e-10
-6.29795e-09
-2.51665e-09
5.45841e-10
-4.7216e-09
-2.65288e-09
5.78779e-10
-4.88618e-09
-3.0198e-09
6.77984e-10
-5.44728e-09
-2.28997e-09
4.84836e-10
-4.31975e-09
-2.27268e-10
2.60936e-10
1.95154e-10
-2.28822e-10
5.16947e-09
5.7125e-09
-8.29071e-09
-2.59125e-09
-4.09656e-09
2.70852e-09
3.77449e-09
-5.69456e-09
-5.15444e-09
4.30626e-09
6.54274e-09
-2.32238e-10
2.42694e-10
-2.38781e-10
2.28324e-10
9.97183e-10
-1.06775e-09
4.6388e-09
-4.56824e-09
4.6578e-09
6.5048e-09
-6.92157e-09
-4.24103e-09
6.2956e-09
7.72668e-09
-9.71945e-09
-4.30283e-09
-1.0633e-09
4.30134e-10
-4.19837e-09
4.83154e-09
2.28936e-09
2.97546e-09
-2.42738e-09
-2.83745e-09
-4.33718e-09
-1.07591e-12
4.07247e-09
2.65777e-10
-3.691e-09
2.33967e-09
-3.09633e-09
4.44766e-09
-3.50582e-09
-3.03528e-09
2.85011e-09
-2.25076e-09
1.75914e-09
3.15151e-09
-2.65989e-09
-2.3553e-09
3.05399e-09
-2.60828e-09
1.90958e-09
7.81652e-11
3.68507e-09
3.85451e-10
2.34959e-09
3.23627e-09
-4.78156e-09
-8.04302e-10
-3.71772e-10
1.48122e-09
-1.58352e-09
4.74077e-10
3.87913e-09
5.43296e-10
-3.68978e-09
-7.32642e-10
-7.30804e-11
-4.34138e-09
-5.91268e-10
3.23603e-09
-3.84139e-09
3.25633e-09
-2.65098e-09
-2.7259e-09
4.33413e-10
4.71884e-09
-2.42635e-09
2.25896e-09
8.56132e-09
-1.37594e-09
-9.44434e-09
3.29439e-09
7.90189e-09
-8.93732e-09
5.56834e-09
7.28941e-10
-1.28658e-09
-2.39177e-10
5.41579e-10
8.25892e-09
-3.38978e-09
-3.09055e-09
2.50709e-09
-1.09343e-09
6.85382e-10
1.23487e-09
-8.26824e-10
5.67765e-10
-1.26729e-10
5.06958e-09
-5.51061e-09
-4.60784e-10
7.09012e-10
-2.1869e-09
1.93868e-09
1.44416e-09
-3.83358e-09
3.71725e-09
-1.32783e-09
1.43253e-09
-1.221e-09
2.78695e-09
2.79889e-09
-3.46518e-09
3.65715e-09
-2.99086e-09
4.5379e-09
9.02847e-09
-2.77201e-09
-1.07944e-08
-2.04944e-09
-2.43504e-09
2.98184e-09
1.50264e-09
1.17644e-09
4.2046e-09
-2.84653e-09
-2.53451e-09
1.13666e-10
-1.94661e-10
-1.87874e-09
1.95973e-09
3.01722e-09
3.55489e-09
-3.97199e-09
3.84116e-10
-9.07288e-10
5.26533e-09
-4.74216e-09
2.85768e-10
2.99922e-09
3.66136e-10
-3.65113e-09
2.97561e-09
-2.69638e-09
-2.63452e-09
-6.15263e-09
-5.67367e-09
6.13174e-09
9.02976e-11
1.5257e-10
-5.17456e-11
-1.91122e-10
7.54886e-09
-1.46753e-09
-6.07261e-10
-5.47407e-09
-5.24841e-09
-1.0953e-09
7.06231e-10
5.63747e-09
4.15462e-09
-4.67934e-09
-3.84557e-09
4.37028e-09
2.20762e-09
-4.03363e-09
-3.03601e-09
3.83539e-09
-4.06122e-09
-1.27418e-09
3.96315e-09
3.2869e-09
-4.01402e-09
4.43811e-09
-3.54507e-09
-6.11459e-09
5.22155e-09
1.71872e-09
-3.89296e-09
3.6184e-09
-5.00688e-09
-3.06789e-09
2.24272e-09
-2.19601e-09
7.87357e-10
1.48451e-09
-7.58593e-11
-3.67985e-09
-2.51979e-09
4.30526e-09
1.89438e-09
2.37914e-09
-3.25586e-09
3.47757e-09
-2.60085e-09
2.46739e-10
-2.50346e-10
2.25133e-10
-2.21526e-10
-4.09149e-09
4.03667e-09
-3.76471e-09
3.81952e-09
7.70482e-09
1.47089e-09
-2.82823e-09
-6.34748e-09
-3.23047e-09
2.28003e-09
-3.38346e-09
4.3339e-09
3.19922e-09
-7.60264e-09
9.06121e-09
1.49095e-10
-5.66143e-10
-2.45583e-09
2.87288e-09
-3.13715e-10
4.3121e-09
-4.22877e-09
2.30389e-10
5.35219e-09
-4.30939e-09
-7.2086e-10
-3.21944e-10
-1.60099e-09
-4.0063e-09
2.16421e-09
3.44308e-09
-6.28868e-09
-6.65934e-10
6.95461e-09
-1.62635e-09
2.69409e-10
1.48206e-09
-1.25122e-10
-8.2137e-10
-4.1781e-09
6.90173e-10
4.30929e-09
-3.75485e-09
-4.22144e-09
4.42858e-09
3.54771e-09
-4.23321e-09
-4.43764e-09
2.78232e-09
5.88853e-09
5.24229e-09
-5.81933e-09
7.58893e-09
-7.01189e-09
1.05257e-09
-4.76566e-09
4.71027e-09
4.67563e-09
-4.29067e-09
4.48563e-09
-2.38701e-10
-2.2684e-10
2.36614e-10
2.28926e-10
-4.45733e-09
4.31684e-09
1.36037e-10
4.45426e-12
5.53201e-09
-5.16024e-09
5.00588e-10
-8.7236e-10
5.60426e-09
-5.17782e-09
5.53218e-10
-9.79663e-10
5.415e-09
-5.05118e-09
4.90977e-10
-8.54803e-10
3.02925e-09
-3.71255e-09
-2.16454e-10
8.99752e-10
-4.91157e-09
4.91713e-09
-8.38165e-11
7.82591e-11
2.93709e-09
-3.12581e-09
3.07524e-09
-2.88653e-09
-4.30557e-10
4.07902e-09
6.96909e-10
-4.34537e-09
2.28232e-10
-2.63056e-10
2.36511e-10
-2.01688e-10
-1.32768e-08
1.46962e-08
-6.9483e-09
5.52892e-09
4.97386e-09
-5.5332e-09
-5.86341e-12
5.65205e-10
-2.77946e-09
-3.03223e-09
2.27453e-09
3.53716e-09
2.47454e-09
-1.66908e-09
2.78872e-09
-3.59418e-09
-7.95845e-09
-8.35692e-09
8.49001e-09
7.82536e-09
2.89663e-09
-3.19e-09
7.83062e-09
-9.04953e-09
-6.52079e-09
7.7397e-09
-2.43075e-09
2.28291e-09
-3.03255e-09
3.18038e-09
-1.26718e-10
1.89009e-10
-6.30327e-09
5.05099e-09
-1.93254e-10
1.44553e-09
3.92256e-09
-2.14579e-09
1.93235e-09
-3.70911e-09
-3.14614e-09
4.32118e-09
2.59183e-09
-3.76688e-09
-3.10828e-09
3.95866e-11
4.09256e-10
2.65944e-09
4.63751e-09
-8.04805e-10
-4.65407e-09
4.54555e-09
-4.15352e-09
-3.33416e-09
2.94213e-09
-4.38459e-09
4.99272e-09
2.60408e-11
-6.34173e-10
-4.46123e-09
5.09851e-09
3.24676e-11
-6.69749e-10
-3.29838e-09
4.1086e-09
7.90865e-10
-1.60109e-09
-3.30492e-09
3.67114e-09
-2.84241e-09
2.47619e-09
3.95801e-10
7.54485e-09
-7.94065e-09
-1.68374e-10
-3.74221e-09
-2.26694e-10
-4.74548e-10
2.81869e-09
8.8388e-10
-3.22802e-09
2.87743e-10
-3.07689e-10
2.37969e-09
-5.46301e-10
6.42433e-10
-2.47582e-09
4.92524e-09
-5.47981e-11
4.66899e-11
4.80148e-09
-4.77195e-09
1.61392e-11
-4.56786e-11
4.43699e-09
-4.32183e-09
1.5975e-11
-1.31135e-10
3.58905e-09
-3.46467e-09
-3.43302e-09
3.30863e-09
2.08493e-10
-1.65766e-10
-2.07169e-10
1.64442e-10
3.94452e-09
1.49607e-09
-2.5584e-11
4.09142e-09
1.53254e-09
-1.97011e-11
4.02887e-09
1.52928e-09
-2.61325e-11
-4.73606e-09
5.91014e-09
-1.27061e-09
9.65319e-11
5.37773e-09
-5.28439e-09
-2.74287e-10
1.80947e-10
-1.24213e-09
1.32551e-09
7.45204e-10
-8.28585e-10
-2.24911e-09
-4.62168e-09
3.63122e-09
3.23958e-09
-5.34638e-09
4.65374e-09
9.5868e-10
-2.66035e-10
6.6779e-09
6.42563e-11
-1.36442e-09
3.63474e-09
3.27868e-09
-2.75384e-09
-4.15958e-09
-4.38084e-09
2.69036e-10
4.17377e-09
-6.19636e-11
4.92298e-09
-4.92077e-09
-2.71323e-12
5.07511e-13
-4.30475e-09
4.31861e-09
-3.78615e-11
2.39968e-11
-4.37398e-09
4.38808e-09
-3.8881e-11
2.47855e-11
-4.21451e-09
4.22809e-09
-3.68176e-11
2.32355e-11
1.50898e-09
-1.77461e-10
3.97747e-09
3.33697e-09
-5.30348e-09
-2.01097e-09
5.10123e-09
-4.64579e-09
-2.73153e-10
-1.82284e-10
-4.40758e-09
3.996e-09
2.61919e-09
-6.08636e-09
5.73866e-09
-1.7383e-10
5.21523e-10
-4.66428e-09
-1.13067e-09
2.61757e-10
-1.56782e-09
-8.17953e-10
1.14365e-09
5.30137e-09
-5.87283e-10
-2.77106e-10
5.24112e-09
-5.24903e-09
1.31828e-11
-5.27506e-12
-4.91611e-09
4.92047e-09
-4.61999e-11
4.18462e-11
-4.35018e-09
4.29632e-09
-1.46756e-10
2.00614e-10
-4.42112e-09
4.36588e-09
-1.48759e-10
2.04004e-10
-4.25805e-09
4.20581e-09
-1.44235e-10
1.96482e-10
3.83622e-09
-3.95957e-09
-5.94447e-10
7.17792e-10
6.0877e-09
1.72195e-10
-1.45841e-09
2.81072e-09
-3.44116e-09
3.00957e-09
-3.10299e-09
2.40953e-09
2.97349e-09
5.94131e-09
-5.08524e-09
-7.05518e-11
-7.85512e-10
4.74978e-09
3.6781e-10
-1.28137e-09
7.21943e-09
-7.15054e-09
-7.60418e-10
6.91529e-10
4.26807e-09
-4.33865e-09
-6.96552e-11
1.40233e-10
-1.48184e-11
-6.75081e-11
3.54405e-09
-3.62185e-09
-2.23611e-10
3.01407e-10
3.59966e-09
-3.6788e-09
-2.27046e-10
3.06189e-10
3.47008e-09
-3.54613e-09
-2.18988e-10
2.95044e-10
5.64137e-10
4.71785e-10
-6.2053e-09
-4.38614e-09
4.99223e-09
-6.85534e-10
7.94389e-11
-4.45502e-09
5.07217e-09
-6.98584e-10
8.14299e-11
-4.29401e-09
4.88722e-09
-6.7072e-10
7.7512e-11
-5.07181e-09
5.51166e-11
-1.28658e-09
5.07282e-09
-1.3753e-09
-4.76526e-09
-3.43052e-09
-2.97186e-09
3.66558e-09
2.73679e-09
4.18615e-10
-1.5476e-10
-5.33653e-10
2.69799e-10
2.71663e-09
-4.32494e-09
5.19737e-09
1.20291e-09
-6.47162e-11
3.89636e-09
-6.80395e-11
2.00554e-10
3.95532e-09
-6.50439e-11
2.01152e-10
3.81498e-09
-6.64904e-11
1.96024e-10
4.97747e-09
-1.02277e-10
5.00452e-11
-2.72352e-10
1.7801e-10
1.05745e-09
7.56279e-11
-4.1945e-09
-1.40533e-10
-8.42786e-10
4.9096e-09
-4.90455e-09
6.01238e-12
-1.10579e-11
-4.28497e-09
1.81687e-10
-9.47899e-10
-4.37654e-09
1.83669e-10
-9.67366e-10
6.39043e-09
-5.46859e-09
4.49641e-11
-9.66804e-10
-4.91121e-09
4.91562e-09
5.32122e-12
-9.73208e-12
-6.24103e-10
1.45078e-10
-6.50951e-10
1.51248e-10
-6.37967e-10
1.48186e-10
-4.31793e-09
4.3303e-09
-1.16846e-11
-6.91896e-13
-4.3875e-09
4.4001e-09
-1.1962e-11
-6.40586e-13
-4.22736e-09
4.23943e-09
-1.13727e-11
-7.00399e-13
-5.50563e-09
5.41806e-09
-1.56625e-10
2.44193e-10
-3.97089e-09
4.3805e-09
-4.81892e-10
7.22858e-11
6.08947e-09
3.57218e-09
-6.02691e-09
2.76011e-09
3.38331e-09
-3.49616e-09
-2.64726e-09
-4.68275e-09
4.70749e-09
-2.27607e-11
-1.97585e-12
-4.33927e-10
2.35283e-09
-3.93258e-09
4.24947e-09
-9.86098e-12
-3.07025e-10
5.22133e-09
-4.6749e-09
-3.46311e-11
-5.11798e-10
-4.15972e-09
4.18685e-09
-3.73931e-11
1.02665e-11
5.13853e-09
7.4658e-10
-1.46449e-10
4.13509e-09
-4.13211e-09
-1.2597e-10
1.22995e-10
5.54233e-09
-4.73948e-09
5.63968e-11
-8.59244e-10
3.154e-09
-4.03135e-09
3.64111e-09
-2.76376e-09
-4.23137e-09
4.88725e-09
2.20676e-10
-8.76553e-10
6.34882e-09
1.80347e-09
-4.39028e-09
-3.76202e-09
-4.53891e-09
4.55641e-09
3.69576e-12
-2.11923e-11
-5.16523e-09
4.98728e-09
-6.03784e-11
2.38326e-10
-7.95934e-10
4.12869e-09
5.16627e-10
-3.84939e-09
-1.11438e-09
5.88642e-09
-1.3324e-10
3.77893e-09
-2.76287e-09
3.42641e-09
-4.44247e-09
2.87808e-09
-4.27898e-09
3.47669e-09
-2.07578e-09
-4.31116e-09
-1.80648e-10
-6.13849e-10
4.48077e-10
4.0449e-09
5.05799e-09
-4.28086e-09
-5.17763e-11
-7.25346e-10
-5.40001e-09
5.26335e-09
-1.07789e-10
2.44449e-10
-2.74103e-10
2.24221e-10
4.98829e-11
3.37605e-09
-3.50712e-09
-1.0213e-11
1.41283e-10
4.42269e-09
-4.18513e-09
1.8485e-10
-4.22409e-10
-3.65696e-09
-3.07264e-09
2.63811e-09
5.92912e-09
-6.02157e-09
4.06071e-11
5.18437e-11
-4.3596e-09
-5.53461e-11
3.03572e-11
-1.51027e-10
9.12922e-11
1.45871e-10
-8.61365e-11
6.74619e-09
-5.41489e-09
2.12598e-10
-1.5439e-09
4.76511e-09
8.03122e-11
-5.77352e-10
-4.94373e-09
5.41511e-09
2.6736e-11
-4.98113e-10
4.59293e-09
-9.63485e-10
-1.5937e-10
4.76772e-09
-9.99342e-10
-1.6872e-10
4.6917e-09
-9.83348e-10
-1.643e-10
5.29682e-09
-5.43126e-09
4.51442e-10
-3.17001e-10
-4.78516e-10
1.03357e-10
-1.78117e-10
5.53276e-10
-4.41164e-09
-9.93698e-11
4.97829e-11
6.32582e-10
-1.91833e-09
-6.22389e-10
1.90814e-09
-3.57268e-09
4.15452e-09
2.67863e-10
-8.49706e-10
3.24715e-09
-1.52747e-09
-1.71968e-09
-4.1165e-10
4.21642e-09
7.76788e-10
-4.58156e-09
5.90499e-09
-5.92833e-09
-8.19572e-13
2.41559e-11
-6.14367e-09
5.99419e-09
-1.03404e-10
2.52881e-10
-3.86551e-09
3.97445e-09
4.34363e-10
-4.73788e-09
-4.2985e-10
2.23993e-10
4.57755e-09
1.57106e-10
-4.16689e-09
-2.41595e-09
2.39147e-09
3.07848e-09
-6.01132e-09
-1.34673e-09
2.07511e-10
2.36613e-10
-1.35747e-10
-5.97995e-09
7.05319e-09
1.97233e-10
-1.27047e-09
3.25724e-09
-3.64014e-09
2.64866e-11
-7.65815e-10
-3.22024e-09
4.86167e-10
4.5161e-09
3.92981e-11
-8.25729e-11
4.15165e-09
-4.161e-09
1.68127e-11
-7.46464e-12
5.81709e-09
-2.88791e-10
-5.11652e-09
-4.11781e-10
4.98697e-09
-2.65429e-10
-4.39409e-09
-3.27445e-10
5.09678e-09
-2.69287e-10
-4.4897e-09
-3.378e-10
5.18276e-09
-2.71495e-10
-4.56401e-09
-3.47255e-10
6.47704e-09
-3.04887e-10
-5.68724e-09
-4.84907e-10
6.1063e-09
-1.28882e-09
2.83752e-10
4.53013e-09
-4.49812e-09
-7.203e-11
4.00235e-11
4.10069e-09
-7.45191e-11
1.07234e-09
4.01496e-09
-7.47501e-11
1.05251e-09
-1.74714e-10
2.0366e-10
-4.48628e-09
-7.19856e-09
1.01295e-09
1.44687e-10
6.04093e-09
4.9207e-09
-2.63773e-12
4.91604e-12
-4.16933e-09
4.17254e-09
4.47512e-12
-7.68298e-12
2.87548e-09
-3.2207e-09
3.71777e-09
-3.37255e-09
5.18683e-09
-5.14584e-09
-8.14744e-11
4.04832e-11
-4.54496e-09
-2.42735e-12
8.4714e-12
-4.06739e-10
4.28419e-09
-4.94182e-10
4.7151e-09
-4.69677e-09
-1.93295e-11
9.98924e-13
-2.36354e-10
8.53504e-11
-1.84128e-10
5.19006e-10
-1.89676e-10
5.36273e-10
-1.87341e-10
5.28864e-10
-6.86055e-10
-6.98017e-11
4.77082e-09
-7.01796e-10
-7.13096e-11
4.8738e-09
-5.19787e-09
5.13597e-09
-1.84168e-10
2.46075e-10
5.1631e-09
5.37967e-11
-7.83668e-11
8.73017e-11
-2.86983e-10
-4.02909e-09
4.14178e-10
8.81338e-10
-4.68508e-09
3.93529e-11
7.13146e-10
9.82079e-10
-2.69731e-10
1.09094e-09
2.50144e-10
1.13279e-09
2.60579e-10
1.11486e-09
2.55521e-10
2.8861e-09
-2.82942e-09
-3.49278e-09
3.1627e-09
-2.99431e-09
3.32439e-09
-6.61554e-09
-7.81682e-10
6.19319e-09
1.20403e-09
-5.40342e-09
5.45248e-09
-5.2119e-11
3.06372e-12
-1.08481e-11
1.05437e-11
-2.46721e-10
-4.52101e-09
-8.21908e-11
7.3488e-11
-8.47835e-11
7.66755e-11
-8.36157e-11
7.51877e-11
5.80006e-09
-5.81513e-09
-7.62389e-11
9.13034e-11
3.78813e-09
-3.50462e-09
-3.14554e-09
2.86203e-09
-4.22228e-09
-4.55501e-10
-2.54878e-11
4.70327e-09
-1.08772e-09
2.70868e-10
4.11928e-09
-3.35742e-09
-5.14579e-09
5.6247e-09
-8.56311e-10
3.77399e-10
4.50791e-09
-8.40499e-10
-2.91359e-10
4.59181e-09
3.25168e-11
-6.79174e-11
3.18147e-09
-3.60035e-09
-3.0739e-09
-1.02483e-10
1.3571e-10
-1.03489e-10
7.02621e-11
-4.3317e-09
4.38828e-09
-7.86418e-11
2.20619e-11
-4.40151e-09
4.45894e-09
-7.99283e-11
2.2501e-11
-4.2408e-09
4.29621e-09
-7.69814e-11
2.15718e-11
-3.68883e-09
4.1074e-09
2.93758e-09
-3.35614e-09
-3.28744e-09
-2.04297e-09
4.33714e-09
-1.4143e-11
7.34991e-10
-3.585e-10
6.3504e-10
-2.10635e-10
3.89764e-09
8.55187e-10
-4.54219e-09
1.68707e-09
-2.61243e-11
1.09148e-09
7.0277e-10
4.0862e-09
-1.84323e-10
1.31946e-09
3.90701e-09
-2.61903e-11
1.00643e-09
-3.63358e-11
1.09334e-10
2.7682e-10
-3.49818e-10
-5.91821e-09
-7.08906e-10
-6.56372e-12
6.63368e-09
-1.54731e-10
7.16388e-11
-5.2316e-09
5.25009e-09
-2.97884e-12
-1.55194e-11
4.41234e-09
-9.99028e-11
1.22988e-09
-4.97673e-10
9.5333e-11
-4.86425e-10
3.8935e-09
-4.69115e-09
1.28408e-09
-3.90478e-09
3.97976e-09
-6.88836e-10
-1.91802e-10
4.26974e-09
4.21215e-09
-5.23415e-09
4.39448e-09
-3.37247e-09
5.56937e-09
-1.12525e-09
-3.09034e-10
1.20817e-09
-7.39284e-11
6.89021e-10
-1.33313e-12
3.82274e-09
-5.01681e-09
1.86739e-09
-6.73322e-10
-2.47971e-09
-6.18827e-09
6.07613e-09
2.59185e-09
-4.89847e-09
4.89215e-09
-1.67563e-12
8.00258e-12
-5.29285e-09
1.87911e-09
5.39093e-09
1.65161e-10
-7.86237e-11
8.18489e-11
-1.68386e-10
-6.03255e-09
-2.97315e-09
6.52599e-09
-4.35208e-09
3.80401e-09
7.53502e-10
-2.05424e-10
-4.19331e-09
3.6661e-09
7.25087e-10
-1.97876e-10
-4.28313e-09
3.74436e-09
7.40959e-10
-2.02188e-10
-3.79518e-09
-2.46023e-10
-6.13114e-10
-2.50539e-09
-2.32351e-09
-2.10296e-09
-5.12687e-09
2.82225e-09
5.67494e-09
-1.52612e-09
1.14799e-09
-3.25648e-09
-3.45403e-09
3.95968e-09
1.23301e-10
1.92772e-10
-1.50912e-10
-4.17728e-09
5.16968e-14
7.90267e-12
-2.28462e-10
-2.425e-11
-7.80222e-09
5.91921e-09
-4.26963e-09
-4.12471e-09
4.605e-09
-4.66156e-10
-1.41336e-11
-4.64204e-09
5.20257e-09
-5.38357e-10
-2.21694e-11
-4.33793e-09
4.20249e-09
4.29005e-09
2.76111e-09
-2.20145e-09
1.58506e-10
-6.03881e-11
1.77928e-10
2.52806e-10
-2.22241e-10
-5.34654e-09
6.10707e-09
-7.56366e-10
-4.16209e-12
4.74188e-09
-5.44374e-09
-1.16328e-10
2.31635e-10
3.24578e-09
-4.56475e-09
4.1277e-09
-2.80874e-09
-4.83966e-09
5.52037e-09
-6.75411e-10
-5.29722e-12
-6.5331e-09
6.78461e-09
-8.05372e-09
1.99122e-13
9.36658e-12
5.06423e-09
-1.05241e-10
1.43144e-09
-2.11813e-10
-5.85967e-11
1.38487e-11
-1.31148e-11
1.44814e-11
-1.39007e-11
1.42099e-11
-1.35262e-11
-4.80049e-09
-1.06365e-09
4.07402e-10
5.98338e-10
2.33517e-12
9.25264e-10
-1.57466e-11
-6.90688e-11
-2.70122e-10
1.12499e-11
-1.23437e-13
3.45929e-09
3.14228e-09
-2.39404e-09
-4.20752e-09
-5.76519e-09
6.47759e-09
-7.24628e-10
1.22241e-11
3.87933e-09
2.20448e-09
-2.16125e-09
4.2363e-09
3.54812e-11
-2.2316e-11
5.36435e-10
3.18737e-10
-8.60527e-11
7.28332e-11
4.00957e-09
3.45072e-09
-3.34101e-09
-6.44093e-13
1.013e-11
-2.13547e-09
1.76272e-09
3.18347e-09
2.82598e-09
4.25532e-10
-3.25151e-09
-4.27445e-09
3.68113e-09
8.23126e-10
-2.29806e-10
1.62107e-11
-1.75773e-11
1.68127e-11
-1.82213e-11
1.65615e-11
-1.79556e-11
2.00279e-10
-2.50809e-10
-4.63553e-09
4.0509e-09
8.01897e-10
-2.17268e-10
-4.99196e-09
9.46481e-10
-1.47825e-10
-5.18201e-09
9.82825e-10
-1.52902e-10
-5.09922e-09
9.66917e-10
-1.50827e-10
4.55139e-09
-6.91588e-11
4.78916e-11
3.64946e-09
-7.23148e-10
-4.90335e-09
1.97704e-09
-5.12805e-09
4.47864e-09
8.88872e-10
-2.39468e-10
1.20887e-10
4.42046e-10
-1.95235e-10
-1.92772e-10
2.22241e-10
4.73231e-09
-6.42651e-11
4.70556e-11
1.13062e-09
-3.7349e-09
-9.83551e-10
-4.16939e-13
1.14853e-11
3.89623e-12
-3.10308e-12
4.58747e-09
-4.91664e-09
3.65871e-10
-3.67016e-11
-8.50339e-09
4.43217e-09
7.36561e-09
5.2199e-09
-1.00753e-10
6.76883e-11
-4.604e-09
-1.00707e-10
4.04193e-11
-4.90379e-09
-2.31158e-10
-9.66517e-11
6.30062e-10
-2.58561e-10
7.09035e-11
-1.61552e-10
7.3538e-11
-1.91162e-10
4.12267e-09
1.61257e-11
1.28524e-11
8.68735e-12
2.03293e-12
8.37147e-11
-1.91064e-10
2.94899e-10
-2.91946e-10
3.40066e-09
3.64066e-09
-3.26239e-09
9.64356e-11
-2.23082e-10
1.14735e-11
4.73277e-10
-4.226e-10
-6.215e-11
4.4011e-11
-4.60456e-11
1.1314e-09
-2.03284e-10
5.7624e-09
3.7595e-12
3.39053e-11
4.13242e-09
-4.33691e-09
4.24117e-09
1.04667e-09
-1.61835e-10
5.24643e-09
4.48415e-10
1.85401e-09
5.56598e-10
-2.74473e-11
9.79441e-11
-1.0782e-10
7.0094e-12
-5.9434e-12
2.73192e-09
1.70606e-09
-2.28583e-09
-2.15214e-09
-7.35174e-09
8.48774e-09
7.57711e-09
-8.71311e-09
4.27559e-10
-3.93964e-10
-2.21214e-11
-1.09552e-12
1.26358e-11
-5.74086e-09
5.50426e-09
3.85192e-10
-1.48588e-10
7.49445e-11
-7.77347e-11
1.15387e-09
-1.74846e-10
2.32682e-10
2.98832e-10
-2.94899e-10
-5.38575e-09
5.92111e-09
-1.02092e-09
4.85552e-10
-6.28871e-09
-9.87369e-10
1.60009e-09
5.67598e-09
1.88444e-10
-3.78871e-10
-4.56703e-09
2.71634e-09
4.7939e-09
-2.94321e-09
3.6076e-09
-1.25477e-10
1.12287e-09
-2.41199e-09
2.71252e-09
-6.4888e-09
2.17959e-09
4.67319e-09
-2.88533e-09
-3.96745e-09
-2.91454e-11
4.31675e-11
3.9354e-09
-4.22192e-09
-3.18652e-09
3.47304e-09
4.23081e-09
-3.26705e-10
5.20883e-09
-1.26749e-10
1.39551e-09
-5.20876e-09
3.25223e-09
3.14884e-09
-1.19231e-09
3.93974e-09
-3.64487e-11
-2.95691e-10
3.56587e-09
-3.3259e-09
2.74493e-09
-2.98489e-09
-4.60526e-09
7.63141e-10
-1.54363e-09
2.89024e-09
-2.98185e-09
1.7242e-09
-2.5668e-10
-1.72605e-09
2.58533e-10
3.7804e-09
3.08414e-09
-2.74242e-09
-4.12212e-09
-7.19739e-09
2.57492e-09
-2.43438e-09
-4.13019e-09
-2.972e-09
4.0143e-09
3.08789e-09
4.82569e-09
-3.44966e-09
2.08325e-09
4.30073e-09
4.03002e-09
-2.64861e-09
-2.3759e-09
1.99228e-09
5.79358e-09
-4.45961e-12
-5.80287e-10
-4.0082e-09
5.31761e-10
-5.12661e-09
1.01478e-10
4.96772e-09
5.74148e-11
-3.57905e-09
2.90606e-09
-2.45283e-09
2.39538e-10
-3.3488e-10
3.24268e-10
2.01045e-09
-2.87484e-09
-1.36402e-10
-4.61153e-09
3.67092e-10
3.29206e-10
-3.91204e-09
-5.71426e-09
4.85159e-09
-2.20679e-09
3.06946e-09
2.60765e-09
-2.52034e-09
-2.74379e-09
-5.92954e-09
7.00639e-09
1.66694e-09
2.31198e-09
-4.27546e-15
-3.62276e-11
4.6379e-10
-2.41985e-09
-6.16458e-09
5.81174e-09
2.77269e-09
8.97716e-10
3.54788e-09
-3.4629e-09
-9.82694e-10
-5.79751e-09
-2.64704e-09
-1.14176e-09
-7.22583e-09
5.9347e-09
2.43289e-09
-1.86063e-09
1.35203e-09
1.13116e-09
-3.78763e-09
5.04695e-09
-2.39048e-09
1.46749e-09
-1.46088e-09
-3.21388e-09
1.06157e-10
-5.46791e-09
9.57843e-10
4.40391e-09
-3.2656e-09
4.1869e-09
-4.67615e-09
-4.53658e-09
1.74224e-09
3.9255e-09
3.85131e-09
4.26834e-09
-5.1032e-09
-3.01646e-09
5.92732e-10
-3.3848e-09
2.33359e-10
-7.05172e-10
-3.24699e-09
3.29982e-09
-3.75146e-09
3.69864e-09
2.24601e-09
-2.99913e-09
-1.68192e-09
-3.8061e-09
-2.8611e-09
4.41809e-09
-2.30388e-10
5.9393e-09
7.28428e-10
-6.43734e-09
2.82942e-09
-2.89024e-09
-3.67952e-09
-3.34212e-09
3.57882e-09
-5.75439e-09
5.51769e-09
5.7837e-09
-4.27107e-09
-5.73408e-09
-3.39934e-09
3.29559e-09
4.40448e-09
-4.10518e-09
9.12141e-11
4.1504e-09
-1.36437e-10
3.27626e-09
6.49089e-10
-3.59927e-09
-3.26082e-10
6.16949e-09
-2.83715e-09
-2.9406e-09
3.29048e-09
-1.98825e-09
-5.52051e-09
8.93224e-10
3.82062e-10
4.87431e-09
-1.08954e-09
5.08471e-09
-4.17018e-09
2.1184e-09
-3.03293e-09
-2.90739e-10
1.9028e-10
-9.59926e-09
2.5834e-09
-1.57175e-09
8.58761e-09
-2.94918e-09
3.27214e-09
7.46652e-11
-1.38857e-09
-5.85332e-09
7.16722e-09
6.46433e-11
-5.27406e-09
-1.24281e-09
6.45223e-09
5.10958e-11
-1.06001e-09
-4.54e-09
5.54891e-09
5.39253e-11
-1.10264e-09
-4.71324e-09
5.76196e-09
5.25197e-11
-1.08356e-09
-4.6377e-09
5.66874e-09
4.19372e-09
-4.08391e-09
9.06974e-11
-2.00504e-10
4.35349e-09
-4.23898e-09
9.432e-11
-2.08828e-10
4.28396e-09
-4.17164e-09
9.27733e-11
-2.05098e-10
2.41069e-09
-2.42651e-09
3.72624e-09
-3.71043e-09
-3.19066e-09
-4.00793e-09
4.25799e-09
3.54056e-10
-3.9256e-09
-1.13371e-12
-3.4786e-09
7.0897e-10
-9.65309e-10
3.73494e-09
4.77317e-10
3.94521e-09
-2.70126e-09
2.81355e-09
-2.86628e-10
4.47605e-09
-4.40005e-09
3.70508e-09
-3.86732e-09
4.12538e-09
-5.68151e-10
-2.90803e-09
2.81665e-09
6.59537e-10
-3.78564e-09
4.02435e-09
-6.50364e-10
2.22457e-09
-5.65639e-09
7.8136e-09
-4.38178e-09
4.95205e-10
-5.74855e-09
3.72823e-11
4.11229e-09
6.00214e-10
7.937e-09
-7.17223e-09
-3.02602e-09
-2.90706e-09
-6.0649e-09
2.72721e-09
8.22836e-09
-1.68792e-10
-8.44177e-09
3.82206e-10
-9.19333e-10
-4.04202e-09
1.17571e-09
9.13864e-11
-1.68841e-10
-8.39769e-11
1.61432e-10
2.76769e-10
5.18851e-09
1.10004e-09
-6.56533e-09
-2.01158e-09
-3.18857e-12
2.33723e-09
-3.2246e-10
-1.84791e-09
2.77966e-09
3.76357e-09
-3.25633e-09
-3.74217e-09
-6.23533e-10
4.31325e-11
4.32257e-09
-2.3832e-10
-3.31479e-10
3.37561e-10
-1.28821e-09
-3.90367e-09
1.3583e-09
7.03176e-09
-2.56414e-09
-6.49186e-09
2.02424e-09
5.22782e-09
3.80009e-10
-6.60441e-09
9.96581e-10
2.81998e-09
6.48288e-10
-3.46827e-09
-3.45303e-09
6.79536e-09
2.7774e-09
-6.11972e-09
-2.32597e-10
1.60662e-10
4.18904e-09
3.03748e-09
-3.28407e-09
-3.94244e-09
4.4925e-09
-6.48075e-09
-2.33212e-09
5.27945e-10
2.7961e-09
-9.91919e-10
4.39095e-09
-4.11983e-09
1.40014e-10
-4.11133e-10
-3.00131e-09
3.6794e-09
4.78703e-09
-5.46511e-09
-2.79733e-09
3.58567e-09
4.53301e-09
-5.32135e-09
-3.32987e-09
4.0218e-09
5.33736e-09
-6.02929e-09
-2.66709e-09
3.32571e-09
4.2287e-09
-4.88733e-09
5.94434e-10
-4.39907e-09
4.61842e-09
-8.13782e-10
-3.67713e-09
4.53019e-09
6.04847e-09
-6.90153e-09
3.95837e-09
4.70101e-09
-4.11857e-09
-4.54082e-09
-3.047e-09
7.02186e-09
3.0569e-09
-3.30863e-09
3.26239e-09
-3.12579e-10
3.32811e-10
1.32463e-10
-5.20912e-09
5.2354e-09
-1.58741e-10
1.62669e-09
-3.55986e-09
-1.93528e-09
3.86845e-09
6.47422e-09
-2.56381e-09
-6.47454e-09
4.63417e-09
-4.51371e-09
9.9181e-11
-2.19641e-10
3.66336e-10
6.46555e-10
-2.26698e-09
-3.28787e-09
3.00494e-09
2.54991e-09
4.13773e-09
-6.37681e-09
-4.22527e-09
6.46436e-09
-1.19933e-10
5.93205e-10
-9.20199e-12
-4.2721e-11
3.41398e-10
-2.89475e-10
-4.10845e-09
4.1308e-09
1.77126e-11
-4.00627e-11
-3.87034e-09
4.49079e-09
-4.46183e-09
5.28272e-09
2.56832e-09
-5.47719e-09
-2.37386e-09
3.56632e-09
5.67478e-09
-3.52768e-09
-3.60544e-09
4.18394e-09
-5.03158e-09
-6.33013e-10
1.37663e-09
4.28797e-09
-6.29642e-09
-7.53796e-10
1.59464e-09
5.45558e-09
-5.47797e-09
-7.4533e-10
1.52798e-09
4.69532e-09
-5.66643e-09
-6.95441e-10
1.48973e-09
4.87214e-09
-7.24675e-09
-9.3159e-10
1.83626e-09
6.34209e-09
7.80481e-10
-3.67771e-10
-6.15357e-09
-3.40919e-09
3.31091e-09
-4.3926e-09
4.49088e-09
-3.71954e-09
-1.27641e-09
-2.16069e-09
4.40624e-09
4.45689e-09
-6.70244e-09
3.93664e-09
-4.2597e-09
-2.93343e-09
5.93824e-10
4.152e-10
-8.34645e-10
-1.74378e-10
2.64527e-09
5.40963e-09
-4.47006e-09
-4.80992e-09
-6.08316e-09
6.00259e-09
-1.83266e-11
9.88982e-11
5.94855e-09
-4.42195e-09
2.90198e-09
-4.25588e-09
-1.20519e-11
4.32469e-09
-5.6756e-11
3.66166e-09
-5.07445e-10
-3.12772e-09
-3.00805e-09
3.14823e-09
6.12008e-09
1.54652e-09
-3.16322e-09
-4.50338e-09
6.47545e-09
1.35248e-09
-2.79096e-09
-5.03698e-09
2.63198e-09
-5.98435e-09
2.72403e-09
-1.80629e-09
-3.28745e-09
2.3697e-09
-3.20434e-09
-3.91758e-09
4.11387e-09
2.38995e-10
-6.05786e-09
4.20127e-09
1.6176e-09
1.44824e-09
3.02389e-10
3.98168e-09
2.87209e-10
-2.97265e-09
7.8735e-09
-4.7834e-09
-6.06325e-09
-2.53084e-09
-1.78464e-10
2.8584e-09
-7.32903e-10
1.42412e-09
5.78582e-09
-6.75099e-10
1.34347e-09
5.14872e-09
-6.14216e-10
1.24922e-09
4.54776e-09
-5.94976e-10
1.21865e-09
4.3633e-09
-6.06471e-10
1.23745e-09
4.46581e-09
-8.58618e-10
-9.19608e-10
-5.58645e-09
7.36468e-09
-2.82575e-09
2.69463e-09
2.0822e-10
-7.71003e-11
-3.6609e-09
7.19924e-10
3.19505e-09
-2.54073e-10
-3.9548e-09
4.2815e-09
5.83177e-09
-6.15848e-09
-3.05242e-09
3.43298e-09
4.43909e-09
-4.81965e-09
-3.11915e-09
3.49905e-09
4.5399e-09
-4.91981e-09
-3.17187e-09
3.54749e-09
4.62137e-09
-4.997e-09
-3.55665e-09
3.91487e-09
5.21096e-09
-5.56918e-09
3.57582e-09
2.82334e-09
-9.89537e-10
3.20628e-09
-4.16557e-09
4.52516e-09
5.711e-09
-5.95318e-10
3.87692e-10
-5.50338e-09
4.5485e-09
1.71839e-10
-4.22513e-09
-3.81453e-09
-9.30102e-10
4.04832e-09
-6.01141e-09
-4.40424e-09
6.36733e-09
1.10506e-09
-5.60162e-09
-1.08694e-10
1.52935e-09
-6.07143e-10
-5.42659e-09
4.50438e-09
-1.48356e-10
-2.65545e-09
2.80381e-09
-3.04852e-09
-1.74956e-09
6.27241e-09
-5.66461e-09
-2.08774e-09
-3.07215e-09
3.73704e-09
1.42285e-09
3.47373e-09
-3.37672e-09
3.0657e-09
-5.40651e-09
8.59989e-10
4.72676e-09
-1.80241e-10
-2.84326e-09
1.08313e-09
-5.99914e-09
5.19277e-09
2.339e-10
-1.08889e-08
-6.65322e-09
1.01904e-08
3.21348e-09
-2.82989e-09
3.55305e-09
1.10163e-09
3.28058e-09
3.48388e-09
-2.47498e-09
3.61996e-09
-4.62886e-09
3.08942e-09
1.14821e-08
-1.16057e-09
-1.3411e-08
-5.58663e-09
3.84145e-09
4.96663e-09
-1.4406e-09
1.5314e-09
3.34207e-09
-3.43287e-09
1.73278e-09
-2.9242e-09
5.7254e-09
7.54198e-10
9.6148e-10
-9.56089e-10
-7.59589e-10
-5.36663e-09
-7.72033e-09
5.41151e-09
7.67545e-09
3.21038e-10