/*--------------------------------*- C++ -*----------------------------------*\
  =========                 |
  \\      /  F ield         | OpenFOAM: The Open Source CFD Toolbox
   \\    /   O peration     | Website:  https://openfoam.org
    \\  /    A nd           | Version:  8
     \\/     M anipulation  |
\*---------------------------------------------------------------------------*/
FoamFile
{
    version     2.0;
    format      ascii;
    class       volVectorField;
    location    "5";
    object      U;
}
// * * * * * * * * * * * * * * * * * * * * * * * * * * * * * * * * * * * * * //

dimensions      [0 1 -1 0 0 0 0];

internalField   nonuniform List<vector> 
4320
(
(0.000639083 0.00169885 3.76946e-22)
(0.000488728 0.00125287 1.25349e-22)
(0.000470272 0.00121597 0)
(3.46182e-05 5.24798e-07 6.70778e-22)
(0.000658147 -1.71984e-05 0)
(0.000661817 0.00180767 0)
(0.000706346 0.00189292 1.06461e-22)
(0.000680383 0.00190393 6.5e-24)
(0.000130467 0.00153793 -9.27271e-22)
(0.000581221 0.00167109 -2.37209e-22)
(0.000667697 0.00178997 -2.46771e-22)
(0.000671697 0.00177352 -1.62866e-24)
(0.000661154 0.0017885 2.43731e-22)
(0.000601426 0.00168954 1.05218e-21)
(0.000829922 0.000816525 1.56198e-21)
(0.000669571 0.00178305 5.43328e-22)
(0.000380342 0.0011336 -2.43374e-21)
(0.000294855 0.000656851 -3.36358e-21)
(0.000669272 0.00178764 -3.80425e-24)
(0.000670442 0.00178433 0)
(0.00067145 0.0017847 7.3811e-22)
(0.00066197 0.00189847 5.95456e-22)
(0.000421726 0.00051649 3.66861e-21)
(0.000619812 0.00177414 -2.79345e-22)
(0.000634024 0.00168644 8.26991e-22)
(0.000703526 0.00187197 1.79068e-21)
(0.000655634 0.00170168 2.01047e-21)
(0.000669867 0.00173437 -1.9412e-22)
(0.000625525 0.00176827 -6.00391e-22)
(0.000484297 3.48886e-05 1.32587e-21)
(0.000637264 0.00174276 -4.91714e-22)
(0.000663691 0.00189791 0)
(0.000670121 0.00189913 5.63127e-24)
(0.000578468 0.00169638 -2.35191e-21)
(0.000444897 0.00125497 -2.8155e-23)
(0.000625673 0.00185781 2.02815e-23)
(0.000671176 0.00178448 -6.91519e-22)
(0.000671768 0.00179362 -1.75398e-22)
(0.00110552 6.92492e-06 1.64291e-22)
(0.000421487 0.00120586 1.04872e-21)
(0.000628119 0.00174489 -2.15556e-22)
(0.000651352 0.00174499 4.51869e-22)
(0.000455176 0.000166883 0)
(0.000621451 0.00157591 1.91109e-21)
(7.84824e-05 0.000729806 7.16615e-22)
(0.000635554 0.00181053 4.45939e-22)
(0.000378373 0.00202382 4.18656e-23)
(0.000629035 0.0017135 -1.1724e-22)
(7.07591e-05 0.000873196 -3.15421e-22)
(0.000669153 0.0017775 0)
(0.000643322 0.0017807 0)
(0.000645487 0.00180185 3.08452e-22)
(0.000743706 -8.11887e-05 6.46888e-22)
(0.000133464 0.00097666 0)
(0.000117502 0.00167388 -1.68138e-21)
(0.000651372 0.00171802 -2.75335e-22)
(0.000574737 0.00168077 2.61615e-22)
(0.000597365 0.00171518 -2.58211e-21)
(0.000256942 0.00159922 -7.21979e-24)
(0.000259478 6.70254e-05 4.60855e-22)
(0.000671693 0.00178359 -3.1285e-22)
(0.000603275 0.00180244 -3.41496e-22)
(0.000604505 0.00178092 2.00366e-22)
(0.000670361 0.00178158 -4.79089e-22)
(0.00089859 -0.000437055 1.2656e-22)
(0.000619345 0.00179125 0)
(0.000435486 0.00015559 4.55695e-21)
(0.00062002 0.00170054 7.48939e-22)
(0.000562531 0.00159938 2.92569e-22)
(0.000622339 0.00187757 -9.56527e-23)
(0.000492917 0.00120401 5.36841e-25)
(0.000674788 0.00190818 1.67511e-21)
(0.00066041 0.00163184 7.12483e-22)
(0.000658794 0.00169062 6.46933e-23)
(0.000665969 0.00177316 0)
(0.000649002 0.00170446 -2.92464e-22)
(0.000477601 0.00126675 -8.30223e-23)
(0.000407679 0.000883798 -1.82681e-21)
(9.91997e-05 0.000236587 9.64097e-24)
(0.000805944 -0.0001023 0)
(0.000652305 0.00177611 -1.29581e-22)
(0.000413236 0.00120499 1.56567e-21)
(0.000439791 0.00122873 -8.11347e-22)
(0.000666999 0.00179006 -7.04197e-22)
(9.13237e-05 0.00021309 -2.46749e-21)
(0.000437508 0.0011825 3.4382e-23)
(9.5794e-05 0.000173108 -2.39699e-21)
(0.0006522 0.00170701 8.40344e-22)
(0.00107039 5.14946e-05 0)
(0.000647854 0.00191756 1.5396e-21)
(0.000873395 -0.000214226 -2.12249e-22)
(0.000715134 0.00189545 0)
(0.00127043 0.000177705 3.95722e-21)
(0.000194551 -6.55186e-07 -2.2867e-21)
(0.000613052 0.00170272 -1.87075e-22)
(0.000599732 0.00175121 4.43023e-24)
(0.000425727 0.00120792 6.72548e-24)
(0.000670345 0.00178302 1.66053e-22)
(0.000673916 0.00178926 4.34346e-24)
(0.00101657 0.000841389 -1.19044e-21)
(7.74195e-05 0.000171971 0)
(0.000662654 0.00176931 0)
(0.000647414 0.00191238 4.11824e-22)
(0.00048872 0.00128831 -1.53541e-21)
(0.000406811 0.00173306 -4.88734e-24)
(0.000415992 0.00123984 2.0839e-21)
(0.000425744 0.00120872 8.96729e-22)
(0.00048356 -9.62478e-05 8.57655e-25)
(4.35584e-05 0.000725906 1.00297e-21)
(0.000408656 0.001225 6.1731e-24)
(0.000987957 -9.63761e-05 0)
(0.000666892 0.00191209 3.26867e-22)
(0.000627601 0.00176674 -1.78668e-21)
(0.000681853 0.00189374 0)
(0.000636002 0.00164196 -8.65894e-22)
(0.000636871 0.00178727 -8.65307e-23)
(0.000194285 0.00087484 -7.31648e-22)
(0.000639557 0.00106532 1.89076e-21)
(3.45943e-05 7.63705e-05 2.67012e-21)
(0.00048449 0.00171268 -1.25696e-23)
(0.000666551 0.00188877 -1.23734e-21)
(0.000424239 0.00120414 0)
(0.000600599 0.0017998 1.05865e-22)
(0.000594028 0.000840886 0)
(0.000682029 0.00189029 4.61044e-22)
(0.000671249 0.0019095 -1.33154e-21)
(0.000718424 0.0020087 -1.28066e-22)
(0.00066401 0.0017655 4.87549e-22)
(0.000663379 0.00171563 -8.21083e-22)
(0.000659994 0.00171834 5.58727e-22)
(0.000609551 0.00176184 -3.86857e-24)
(0.00065624 0.00190614 2.55734e-21)
(0.000476375 0.00129764 1.15974e-23)
(0.000682506 0.00192205 5.04358e-22)
(9.85593e-05 0.000676164 -7.10008e-22)
(0.000211714 5.09029e-05 -7.23823e-22)
(0.000411987 0.00116421 4.73638e-22)
(0.000193167 2.375e-05 -4.3317e-22)
(0.000626945 0.00166703 0)
(0.000522267 2.34318e-05 -3.24942e-21)
(0.000423265 0.00110054 -4.47732e-22)
(0.000645964 0.00179893 2.08358e-22)
(0.000262078 0.00173659 2.29264e-23)
(0.000245607 0.00162318 -1.07524e-23)
(0.000108766 0.000615276 0)
(0.000598626 0.00175479 -1.08423e-21)
(0.000624412 0.00170582 0)
(1.27824e-05 -1.0034e-05 5.2097e-22)
(0.000567161 0.00173826 0)
(0.000367578 0.00202535 -2.01999e-23)
(0.00067069 0.00177892 -2.95933e-22)
(0.00048644 0.00193076 1.47827e-22)
(0.000616362 0.000745919 1.54902e-21)
(0.000584506 0.000773434 0)
(0.000648244 0.00179029 0)
(0.000713472 0.00202819 -2.31732e-23)
(0.000912564 0.000414734 -5.50531e-21)
(8.28143e-05 0.000962559 7.83525e-22)
(0.000106099 0.000260476 0)
(0.000608262 0.00179713 -1.81042e-22)
(6.4695e-05 0.00013775 0)
(0.000433138 0.00123172 2.23439e-21)
(0.000601918 0.00169316 8.1325e-23)
(0.000591221 0.001789 -1.26931e-22)
(0.00070044 0.00192103 1.11106e-21)
(0.000636942 0.00172752 -4.3818e-22)
(0.000682515 0.00187415 1.34031e-21)
(0.000240724 0.000876992 1.69229e-21)
(0.00159142 0.00145184 0)
(0.000551472 0.00172362 3.56241e-21)
(0.00060288 0.00171023 0)
(0.000658096 0.00178702 0)
(0.000355224 0.00129616 -1.24011e-22)
(0.00064755 0.00200809 2.81695e-23)
(0.000530896 -6.57847e-05 -2.36717e-21)
(0.000394232 0.000737011 -9.17569e-22)
(0.000389656 0.000540816 1.63428e-21)
(0.000736428 0.00194194 5.4064e-21)
(0.000644327 0.00190517 1.73795e-21)
(0.000507819 0.00128807 -4.4557e-22)
(0.000764481 0.000416663 0)
(0.00058711 0.00180467 -1.42477e-21)
(0.000869879 0.000322287 1.48842e-21)
(0.000971107 8.53636e-05 -7.73338e-22)
(0.00115 0.000641005 -4.91217e-21)
(4.92039e-05 0.00111273 1.08245e-22)
(5.2812e-05 0.000107228 -1.41522e-22)
(0.000560517 0.00204731 1.54323e-22)
(0.000523412 0.00164248 3.45989e-22)
(0.000429695 0.000554449 -3.56208e-21)
(0.000616493 0.00173558 -2.02214e-22)
(0.000661176 0.00171821 -2.85487e-22)
(0.00102939 6.21347e-05 2.2286e-21)
(0.000680537 0.00185149 1.13757e-23)
(0.00097556 -4.66458e-05 -1.27307e-21)
(0.000651331 0.00172784 8.68104e-22)
(0.000657333 0.00185776 -7.8977e-22)
(0.000646327 0.00190834 3.50335e-23)
(0.00064505 0.00179785 4.35948e-22)
(0.000668426 0.00177424 -4.28495e-22)
(0.000891772 0.000348226 -1.82073e-21)
(0.000607915 0.00170498 3.89192e-22)
(0.000646191 0.00169946 0)
(0.000639934 0.00171849 5.23598e-22)
(0.000892183 0.00185186 -2.20833e-21)
(0.000472394 0.00146814 0)
(0.000647434 0.00189016 0)
(7.06521e-05 0.000153968 -1.88255e-23)
(0.000551312 0.00175876 0)
(0.00100286 1.6499e-05 0)
(0.000658655 0.00186901 2.27559e-22)
(0.000238873 6.75359e-05 1.36786e-21)
(0.000379711 0.000671614 -2.07387e-21)
(5.90317e-05 0.00012274 0)
(6.15926e-06 1.79542e-05 3.42693e-22)
(4.0407e-05 8.50733e-05 4.74657e-21)
(8.36743e-06 5.92092e-06 3.18976e-22)
(4.51672e-05 9.50903e-05 -2.24393e-21)
(0.000969213 6.88503e-05 -2.71148e-21)
(0.000637796 0.000668546 -4.58772e-21)
(0.000579447 -0.000215475 -1.97979e-21)
(0.000605869 0.00173436 -4.26575e-22)
(0.000216832 3.01932e-05 -2.69976e-22)
(0.000705765 0.00179049 -1.62071e-23)
(0.000692214 0.0018661 8.28167e-22)
(5.53456e-05 0.00054741 0)
(0.000539721 0.000860648 0)
(0.000852815 0.000343678 -8.39586e-22)
(0.000751656 0.000431323 1.89714e-21)
(0.000995965 6.00732e-05 1.12894e-24)
(0.000612181 0.00190996 2.11711e-22)
(0.00103506 0.000672362 1.94841e-21)
(0.000434157 0.00122948 -7.33022e-22)
(0.00063177 0.00170398 -1.57064e-22)
(0.000650299 0.00178013 0)
(0.000283884 -0.000120129 -1.07882e-24)
(0.00064547 0.0018499 7.62739e-22)
(0.000651037 0.0017053 0)
(0.000635211 0.00177144 -1.18894e-22)
(0.000647357 0.00179055 0)
(0.00118584 0.00023942 -2.39008e-21)
(0.00111595 0.000768204 -3.75383e-21)
(0.000816704 0.00171619 -2.27027e-21)
(0.000702731 0.00188513 -1.8583e-22)
(0.000675456 0.00187759 2.63857e-22)
(0.000293591 0.00193767 0)
(0.000349922 0.000381381 -2.56391e-22)
(0.000498141 0.000107006 1.96788e-21)
(0.000707345 0.00187119 0)
(0.000426818 0.00117487 -3.80021e-22)
(0.000643193 0.0017704 1.75031e-21)
(0.0005162 0.00154833 -4.69945e-23)
(0.000676758 0.00193522 -2.20467e-23)
(0.000719321 0.0019784 -2.40795e-21)
(0.000725211 0.0019736 0)
(0.000658363 0.00157412 1.11708e-21)
(7.99602e-06 3.33208e-05 9.29955e-24)
(0.000640024 0.00175118 -1.05724e-22)
(0.000410998 0.00118125 0)
(0.000608784 0.00178719 1.0716e-22)
(0.000685481 0.00185216 6.43588e-22)
(0.00118961 0.000560636 3.37872e-21)
(0.000751473 0.00181732 -6.96247e-22)
(0.000710446 0.00194121 8.92257e-22)
(0.00043402 0.000304502 4.06125e-21)
(0.000664684 0.00177039 0)
(0.000901533 -0.000152572 -1.56562e-22)
(0.000406988 0.00121023 -1.49207e-22)
(0.000752105 0.00100795 -2.58687e-21)
(0.000471104 3.10158e-05 -1.88302e-21)
(0.000661003 0.0017447 -6.19308e-22)
(9.67409e-06 5.25455e-05 0)
(0.000616045 0.00174051 0)
(0.00106794 0.00195226 0)
(0.000963658 -0.00012306 0)
(0.000664258 0.00178468 -1.61707e-21)
(0.000312925 -0.000137186 -5.97461e-22)
(0.000383873 0.0011336 -5.946e-22)
(5.09669e-05 -2.12232e-07 2.64262e-21)
(1.11381e-05 6.83833e-05 -3.43331e-22)
(0.000485017 0.00010553 5.105e-25)
(0.000593991 0.00181595 4.06524e-22)
(0.000632809 0.00188295 -5.05823e-22)
(0.000691282 0.000197042 -4.1481e-21)
(0.000659499 0.00170852 -3.07014e-22)
(0.000683348 0.00187024 4.95857e-22)
(0.00065369 0.00171104 -8.69247e-22)
(0.000167524 -3.38871e-05 -2.25034e-21)
(0.00069503 0.00199463 -2.25726e-22)
(0.000698852 0.000877384 -1.06712e-21)
(0.000669569 0.00177342 6.4195e-22)
(0.00069455 0.00192178 -1.07016e-21)
(6.58131e-06 2.27092e-05 0)
(0.000686838 0.00188498 1.31503e-22)
(0.000979591 0.000366713 -4.15597e-21)
(0.000640092 0.00189023 0)
(0.00064284 0.00180012 -3.09258e-21)
(0.000683365 0.0019768 2.05827e-23)
(0.000590443 0.00197694 2.07105e-23)
(0.000624838 0.00185987 1.02172e-21)
(8.38631e-06 3.91733e-05 -2.97237e-22)
(0.00065081 0.00172573 -1.78057e-22)
(0.000679411 0.00188923 -9.02073e-22)
(0.000653467 0.00177159 -3.35323e-22)
(0.000716082 0.00186761 8.71271e-22)
(0.00136085 0.000500903 1.79227e-21)
(0.000692551 0.00189568 -1.23259e-21)
(0.000716617 0.00192066 0)
(0.000707015 0.00194502 -2.88535e-23)
(0.000647106 0.00180078 -2.15514e-22)
(0.000647053 0.00179816 1.79199e-22)
(0.000669738 0.00178482 1.1702e-23)
(0.000414114 0.000988316 -3.59003e-21)
(0.000454815 0.000582966 -1.51896e-21)
(0.0006573 0.00173802 6.5732e-22)
(0.00063188 0.00186881 -5.34891e-23)
(0.000337051 0.000124024 4.77369e-21)
(0.000676038 0.00176968 0)
(0.000188475 0.000926735 -1.86195e-22)
(0.000629646 0.0016928 1.70963e-22)
(0.000656629 0.00188979 0)
(9.14279e-06 4.5698e-05 -1.04702e-23)
(0.000266488 -0.000212589 0)
(1.06636e-05 6.06869e-05 2.51614e-22)
(0.00171927 0.00188357 -9.89597e-22)
(1.99836e-05 8.03216e-05 8.63468e-22)
(0.000632587 0.00181979 0)
(3.11178e-05 0.000760177 0)
(0.00130969 0.000166033 -4.11102e-22)
(0.000653054 0.00192429 -1.13847e-22)
(0.000666145 0.00175039 -6.93926e-23)
(0.000641134 0.00192293 8.42894e-22)
(0.000644545 0.00191999 6.93607e-22)
(7.16684e-06 2.77899e-05 3.00049e-22)
(0.00114954 0.000530115 4.57753e-21)
(0.000527345 0.00193278 1.17375e-21)
(0.000847219 0.000913938 -1.43462e-21)
(0.00019922 -6.12152e-05 -2.39406e-21)
(0.000659691 0.00177752 -8.10957e-22)
(4.68462e-05 0.00033086 -1.8425e-21)
(0.00074324 0.001996 0)
(0.000641233 0.00179329 -7.40516e-22)
(0.000671383 0.00177021 0)
(0.000770698 0.000923349 0)
(0.000349687 0.00091009 1.47412e-21)
(1.56753e-05 8.12019e-05 -1.42829e-22)
(0.000230538 -0.000181195 4.48145e-21)
(0.00106184 0.000315853 1.25454e-21)
(0.00129648 0.000132735 1.02494e-21)
(0.000124872 0.000238646 -8.07762e-24)
(0.000687866 0.00186579 -6.31515e-22)
(0.000698244 0.0020117 -9.79124e-22)
(0.000190642 4.40598e-05 -4.40806e-22)
(0.000514148 0.00137565 1.81986e-21)
(0.000656321 0.00170308 -6.51851e-24)
(0.000418912 0.000747507 1.51917e-21)
(0.000650165 0.00179883 -9.77411e-22)
(0.000542212 0.00181228 3.55257e-24)
(0.000636503 0.00194881 3.1607e-21)
(0.000654641 0.00179169 5.51649e-22)
(0.000274371 0.000835601 0)
(0.000652486 0.00187313 6.75293e-22)
(0.00063433 0.00171954 -2.11306e-22)
(0.000681036 0.000880606 -1.73943e-21)
(0.000389123 0.00187363 -5.05668e-22)
(0.000710961 0.0018992 -2.39024e-22)
(5.81058e-06 1.36194e-05 -6.21594e-22)
(0.000949919 3.26291e-05 0)
(0.000373202 -0.000252772 -7.44934e-22)
(0.000665538 0.00176495 -1.40395e-21)
(0.000670554 0.00175982 -1.32642e-22)
(0.00041242 0.000731534 -1.31284e-21)
(0.000654002 0.00180195 8.72842e-22)
(0.000338833 0.000654388 4.42808e-21)
(0.00048361 0.0016483 3.20564e-22)
(0.00017427 -0.000130574 -9.80056e-22)
(0.000466015 0.00158245 4.49874e-23)
(0.000652567 0.0017278 0)
(0.000229298 8.66202e-05 0)
(0.00069056 0.00190385 -7.93945e-22)
(5.54996e-06 9.04678e-06 1.55983e-22)
(0.000938848 0.00128114 -1.33383e-23)
(0.000988786 0.000460398 1.77826e-21)
(0.000595376 0.0018361 1.44105e-21)
(6.44917e-05 0.000602976 1.5915e-22)
(0.000602611 0.00180635 1.63057e-21)
(-4.39246e-06 7.87068e-05 1.51192e-21)
(0.000476255 -0.000151662 0)
(0.000701808 0.00193139 0)
(6.93639e-05 6.61111e-05 -1.6016e-21)
(0.000692582 0.00209042 -2.80807e-22)
(0.000703996 0.000257598 -1.68564e-21)
(2.67093e-05 4.18894e-06 -2.93083e-22)
(0.00011508 1.99281e-06 1.42211e-21)
(0.000694608 0.00189028 3.93203e-21)
(0.000426912 -3.27834e-05 1.72514e-21)
(0.000641511 0.00177575 2.53719e-22)
(0.00121584 0.000712203 1.38609e-21)
(0.000640471 0.00177153 1.9448e-21)
(0.000673893 0.00177577 -1.17773e-23)
(0.000252995 0.00113921 -2.13527e-21)
(0.00042152 0.000923274 2.35067e-21)
(7.88141e-05 0.000889676 0)
(0.000667069 -0.0001692 3.00109e-21)
(6.24929e-05 5.07416e-05 -9.06271e-22)
(0.000237199 0.00135556 -1.77089e-21)
(0.000551894 0.0018218 -6.16481e-22)
(0.000673646 0.00177046 -8.31613e-22)
(0.000622975 0.0018172 7.52483e-22)
(0.000672861 0.00178716 -6.4964e-22)
(0.000520949 0.00166778 -2.99213e-23)
(0.000864515 0.000540088 0)
(0.000613001 0.000850589 2.87054e-21)
(0.000366999 -0.000146751 -1.0234e-21)
(0.000641605 0.00190531 -1.36259e-21)
(0.000104281 5.21681e-06 2.78756e-26)
(0.000657847 0.00170422 5.79213e-22)
(0.000968826 1.10453e-06 1.02799e-22)
(0.000828286 0.00116151 -1.23142e-23)
(0.00143167 0.000456677 0)
(0.000543741 0.00156733 -1.74442e-23)
(0.000324829 -9.07877e-05 6.90797e-22)
(0.000729903 0.00202545 -7.97699e-22)
(0.000148211 -0.000124328 2.85178e-21)
(0.000526281 0.00138492 0)
(0.00112568 0.000468402 -3.27272e-21)
(0.00059664 0.00161318 -1.19155e-21)
(0.000522595 0.000853567 -6.38377e-22)
(8.12484e-05 6.57069e-05 9.1182e-22)
(0.000968941 3.27725e-05 -5.59992e-22)
(0.000334939 0.000393433 -3.91044e-22)
(0.000653223 0.00180069 0)
(9.92415e-05 1.81126e-05 9.72775e-22)
(0.000299835 0.000456176 -1.34324e-21)
(0.000945898 0.000974578 3.48487e-22)
(9.67294e-05 6.61334e-05 -2.35017e-21)
(0.000715172 0.00195273 -5.58398e-21)
(0.000572877 0.00176748 3.64895e-23)
(0.000653251 0.00180281 7.50469e-22)
(0.00102941 2.72858e-05 0)
(0.000653397 0.0018057 0)
(2.73366e-05 -0.000102671 1.18693e-21)
(0.000655111 0.000528098 6.49938e-21)
(4.67512e-05 3.91054e-05 2.27232e-21)
(0.00076745 0.00188254 8.90652e-21)
(1.06509e-05 -3.40318e-05 1.939e-23)
(0.000627517 0.00168589 -3.7676e-22)
(0.000785927 0.00028689 -5.22129e-21)
(0.000621215 0.0017968 0)
(0.00128318 0.000716972 2.36137e-21)
(0.000618761 0.0018816 3.38006e-22)
(0.000956365 0.000304354 1.65942e-21)
(7.61657e-05 2.72723e-06 1.36369e-21)
(0.00070243 0.00203964 7.7754e-22)
(0.000324688 0.00084994 -1.64288e-21)
(3.92038e-05 6.96633e-05 -1.98943e-21)
(0.000643208 0.00187038 8.40597e-22)
(0.000889681 0.00101475 1.16978e-21)
(0.000960441 1.07654e-05 6.72038e-22)
(4.67474e-05 6.326e-05 -4.87799e-22)
(0.000124256 -0.000108918 -2.81544e-22)
(0.000627371 0.000472478 -1.83441e-22)
(0.000237569 0.000784773 2.04695e-21)
(0.000639976 0.00190104 3.88631e-22)
(0.000219167 0.00113866 0)
(0.000721872 0.00200107 -2.3012e-21)
(0.000755767 0.00196977 0)
(0.000904116 0.000276739 -3.51775e-21)
(8.02882e-05 0.000817588 -8.4378e-22)
(4.13946e-05 6.80185e-05 2.60249e-21)
(0.000657852 0.00184156 -8.34301e-26)
(0.000911875 0.000282739 6.76694e-24)
(0.000860091 0.000779683 0)
(0.00087594 0.000871383 -6.90607e-22)
(0.000663629 0.00177956 0)
(0.000663423 0.00188026 -2.15453e-22)
(0.000646083 0.00172134 0)
(0.00106141 0.000187792 -4.82065e-21)
(0.000860083 0.00142288 6.19297e-23)
(0.000312537 6.31577e-05 1.47995e-21)
(0.000647731 0.0017423 -7.44712e-22)
(4.90364e-05 3.21951e-05 0)
(0.000643973 0.00188898 -2.3659e-24)
(7.86737e-05 0.00013646 2.33643e-21)
(0.000938126 -8.01481e-05 5.51743e-22)
(0.000762782 0.000658117 -2.00564e-21)
(0.000630928 0.00179286 3.17933e-22)
(0.000632734 0.00190065 -1.7758e-22)
(0.00096122 1.64381e-05 2.29503e-22)
(0.000653081 0.00178321 7.24543e-22)
(0.000828534 0.000853162 2.03874e-21)
(3.56017e-05 4.2337e-06 -1.61511e-21)
(0.000716481 0.00205677 -4.89426e-22)
(0.000579246 0.00051719 0)
(-7.9021e-05 0.000588582 3.44076e-21)
(0.00102253 0.000272018 0)
(0.000667979 0.0017886 -8.33642e-22)
(0.00108644 0.000237698 0)
(0.000656359 -0.000202756 2.17633e-22)
(0.000321709 0.000746581 1.08129e-21)
(0.000425187 0.000940953 1.13055e-21)
(0.000788079 0.00140882 -2.0224e-21)
(0.00037187 0.00112683 -1.16603e-21)
(-4.58052e-05 0.000573529 7.87501e-22)
(0.000766668 0.000865002 1.74174e-21)
(0.000684774 0.00187707 -6.62428e-22)
(0.000657107 0.00170323 -3.22397e-22)
(0.000668338 0.00184808 9.69651e-22)
(0.000729894 0.00198129 -4.3969e-21)
(0.000583225 0.000224625 4.07832e-24)
(0.000740183 0.00199654 0)
(0.000453823 0.000581894 0)
(0.000645972 0.00178801 0)
(0.000966517 0.00158846 5.91111e-21)
(0.000471426 0.00121551 4.0071e-24)
(0.000615691 0.00180061 2.87041e-22)
(0.000604046 0.00174715 -6.23413e-23)
(0.0006257 0.00185772 -1.92836e-22)
(8.65514e-05 -0.000794521 7.01006e-22)
(0.000499151 0.000487855 -2.29908e-21)
(0.000690301 0.00187999 -1.43666e-21)
(7.86051e-05 -9.05462e-06 -4.83746e-22)
(0.000646138 0.00179985 -1.48061e-21)
(3.56532e-05 -1.87543e-06 0)
(0.000427321 0.000850366 2.58696e-22)
(0.000629314 0.000314806 -4.01654e-21)
(0.00101558 0.000617986 1.44457e-21)
(0.000589187 0.00147653 -1.18625e-21)
(0.000566528 0.0017247 2.99692e-23)
(0.000534366 0.000805878 -2.50987e-21)
(0.000336333 0.000504676 -6.41287e-24)
(0.000792705 0.000715111 2.7464e-21)
(3.5384e-05 4.90561e-05 3.23093e-22)
(0.000623543 0.00178992 0)
(0.000394837 0.000458484 -4.86526e-24)
(0.000652203 0.00189359 -4.2354e-22)
(0.000931705 -4.89645e-06 9.34396e-22)
(0.000645001 0.00177188 2.94639e-22)
(0.000811981 -0.000338415 -2.88948e-21)
(0.000678105 0.00188282 4.41312e-22)
(1.59724e-05 0.000122526 -3.18142e-22)
(0.000649367 0.00200574 -2.68003e-22)
(0.000384769 0.00119914 5.42273e-23)
(2.56245e-05 8.56283e-05 0)
(0.000293854 0.000577827 -8.6456e-22)
(0.000718951 0.00191022 6.93378e-23)
(0.000626587 0.00185998 -6.41287e-22)
(0.000419253 0.000647127 4.9263e-21)
(0.00057263 0.000269636 -2.88432e-21)
(0.000376858 0.000630884 -1.9421e-24)
(0.000330926 0.000619504 -3.51025e-21)
(2.92856e-05 5.21205e-05 6.01097e-22)
(0.000776626 0.000674081 3.17888e-21)
(0.000102208 -9.52114e-05 5.88748e-22)
(0.000652806 0.0017393 1.69834e-22)
(5.59786e-05 0.000983934 -5.77623e-22)
(0.000718254 0.00204685 0)
(0.000667595 0.00176804 -1.43518e-21)
(0.000390285 0.000508779 -3.06476e-21)
(0.000548952 0.000125118 1.25938e-21)
(0.000673096 0.00185767 -2.69463e-21)
(0.000678141 0.00186145 -3.74981e-22)
(6.72379e-05 0.000106782 1.48997e-22)
(0.000338025 0.000538311 -3.10612e-21)
(0.000722158 0.00210065 -3.83221e-22)
(0.000645318 0.00190954 -8.46954e-22)
(0.000620455 0.00115569 -3.44631e-21)
(0.000799252 0.000189879 2.41149e-21)
(7.61422e-05 -7.29419e-05 -1.85373e-23)
(0.000656616 0.00189639 0)
(0.00107312 0.000438555 0)
(0.000316375 2.21933e-05 2.48392e-21)
(0.000329949 0.000456501 5.82753e-21)
(0.000890652 0.000294587 4.15848e-25)
(0.000295412 0.000426117 1.41253e-21)
(0.000634298 0.00185237 -8.83521e-22)
(1.81905e-05 0.000150022 -1.22597e-21)
(0.000559893 0.000209657 -1.51335e-21)
(0.00108994 -1.58962e-05 0)
(0.000598859 0.000421641 0)
(0.000617662 0.00182056 8.50294e-22)
(0.000103071 0.000438233 2.63826e-24)
(-2.78839e-05 0.000647073 -6.69426e-22)
(0.000640694 0.00184923 1.86593e-21)
(3.59012e-05 2.58946e-05 1.92225e-21)
(0.000730095 0.000645863 -1.03252e-21)
(0.000594765 0.000669855 -2.78528e-22)
(0.000643547 0.0017971 6.24041e-22)
(0.000471112 -2.86088e-05 1.28884e-26)
(0.00113175 0.000112466 -2.23567e-21)
(0.000659851 0.00188673 -9.13974e-22)
(0.000661283 0.00187183 -8.45324e-22)
(0.000357481 0.000421628 0)
(0.000430537 0.00122143 1.21146e-22)
(4.25865e-05 1.91587e-05 -1.41176e-22)
(0.000297288 0.000494853 1.35913e-21)
(0.000621027 0.0019478 2.1766e-22)
(0.000724073 0.00195814 -2.25926e-21)
(0.000639218 0.000593804 0)
(0.000629534 0.00186686 0)
(1.43542e-05 0.000130285 0)
(0.000920461 0.00044294 2.54834e-21)
(0.000671982 5.03313e-05 8.07346e-22)
(0.000665892 0.000480605 3.1948e-21)
(-6.05504e-06 0.000490479 0)
(0.000637825 0.00061298 4.09996e-22)
(0.000765741 0.000195666 2.09904e-21)
(0.000626872 0.0003163 7.02966e-21)
(8.64382e-05 7.84565e-05 0)
(0.000980385 -4.55487e-05 -8.98405e-23)
(0.00064908 0.00175239 2.61618e-22)
(0.000298118 0.000549886 1.50483e-21)
(0.000633936 0.00182645 -2.23454e-22)
(0.000672257 0.00179413 -2.8201e-24)
(0.000642812 0.00178425 3.09167e-23)
(0.000328807 0.000319318 3.84473e-22)
(0.000786862 1.80906e-05 0)
(2.09663e-05 3.15676e-05 8.18477e-27)
(0.000944739 -6.00902e-05 1.67133e-21)
(1.58806e-05 9.85825e-06 -4.03334e-22)
(0.000471751 -0.000226741 -1.33704e-21)
(0.00122071 0.000107835 0)
(0.00106474 0.000228772 1.93578e-21)
(0.00056281 0.0016623 -2.5801e-24)
(4.47854e-05 2.79883e-05 0)
(0.000728045 0.0020082 3.92767e-22)
(0.000713049 0.000123726 6.72652e-22)
(0.000965211 2.16375e-05 -2.9516e-22)
(2.16606e-05 0.000186244 0)
(0.00108925 0.000482275 -4.35869e-21)
(0.000660537 0.00170627 -4.14368e-22)
(0.000739039 0.00202616 -3.11529e-21)
(0.000622834 0.00185101 -3.51792e-24)
(0.000656044 0.00170879 0)
(-4.97386e-07 0.000104203 -9.37678e-23)
(0.000685353 0.000732648 -7.08003e-22)
(0.000956367 5.01055e-05 -2.88583e-21)
(0.000818249 0.000203634 -3.27816e-21)
(0.000383386 6.82492e-05 7.5154e-21)
(5.11496e-05 2.36977e-05 -9.26317e-22)
(0.000647394 0.00172422 -1.01328e-20)
(0.000273801 0.000720201 6.1989e-25)
(0.00066697 0.00188259 -3.04055e-23)
(0.000616554 0.00197991 -5.89308e-23)
(0.000651268 0.00176407 0)
(0.000971481 4.17531e-05 0)
(6.58346e-05 -6.35299e-05 0)
(0.000691604 0.00189406 -2.25602e-22)
(0.000639233 0.00181185 -1.92396e-21)
(0.00061347 0.000383752 -4.31127e-21)
(0.000720086 0.00190652 0)
(0.00152611 0.000573533 4.01067e-22)
(1.92641e-05 3.57856e-05 -4.85955e-22)
(0.00133967 0.000667756 -1.01299e-22)
(0.000723144 0.00202442 1.34441e-21)
(7.6265e-05 -1.58473e-05 2.30095e-21)
(0.000629902 0.00177698 -1.41885e-21)
(0.000643749 0.0017931 -1.08869e-21)
(0.00100131 3.15513e-05 -8.819e-23)
(0.000658731 0.00171785 3.93175e-22)
(0.000404394 4.9611e-05 -2.50669e-21)
(0.00064557 0.00178744 0)
(0.000620636 0.00181593 -3.4703e-22)
(3.64729e-05 1.68424e-05 0)
(0.000434077 1.32235e-05 -1.82838e-25)
(0.000708085 0.00201804 1.10438e-23)
(0.000635697 -0.00036741 1.05787e-21)
(0.000418283 0.00118079 7.91932e-24)
(0.00111193 6.94835e-05 1.42379e-22)
(0.000155822 -4.87789e-05 2.47322e-21)
(0.000339769 -9.3144e-06 -1.48637e-21)
(0.000997273 1.2576e-05 1.66819e-21)
(0.000629485 0.000578323 5.11605e-22)
(0.000714202 0.000165026 2.54915e-21)
(0.000648066 0.00177249 -9.7473e-22)
(0.000137636 0.000171264 -1.34124e-21)
(0.000755469 -0.000208606 6.27172e-22)
(2.61342e-05 4.02518e-05 1.97744e-21)
(0.000738858 0.00202732 -2.57188e-21)
(0.00031037 0.000357686 0)
(0.000755701 0.000948457 2.89092e-21)
(0.000714049 0.00203213 0)
(0.000675795 0.00188804 0)
(0.000917787 3.43088e-05 0)
(0.000661467 0.000391865 -2.4842e-24)
(0.000316763 -5.44304e-05 5.08716e-26)
(0.000310075 -0.000204176 -1.80022e-21)
(0.000558186 0.000293275 -6.11925e-21)
(0.000306192 -1.63938e-05 1.41167e-21)
(1.95001e-05 0.00016679 1.23229e-21)
(0.000716035 0.00202805 0)
(0.000315388 -0.000244533 6.25045e-21)
(0.000149806 -0.000152554 1.25868e-21)
(0.000679992 0.00187975 -2.01406e-22)
(0.000386602 0.000956192 0)
(6.18073e-05 8.90567e-05 -1.8349e-21)
(0.00031185 -0.00010483 2.26849e-21)
(0.000351666 8.63325e-05 -4.3231e-21)
(0.000955963 3.80039e-05 3.89999e-21)
(0.000940419 0.000350192 3.4808e-21)
(0.000645419 0.00188985 -6.91575e-22)
(0.000946775 -9.88589e-05 0)
(0.000559182 -0.000178864 1.52448e-21)
(0.000580466 -0.000113711 3.99085e-21)
(0.000568687 -6.23609e-05 -5.04753e-21)
(0.000536183 5.52117e-05 2.24323e-21)
(0.000575072 -2.45736e-07 -1.23082e-21)
(-2.00503e-05 -0.000424341 8.69919e-22)
(4.01246e-05 2.59786e-05 2.74712e-22)
(0.000780371 0.000864339 -4.73571e-21)
(0.000902612 -5.41932e-05 0)
(0.000635003 0.0017799 -1.89494e-22)
(0.000425115 0.0001203 -9.67415e-22)
(0.000245837 0.00128647 -1.86221e-21)
(0.000685029 0.00186561 -1.04768e-21)
(0.000144909 -6.12797e-05 2.09548e-23)
(0.00073774 0.00204997 -9.37463e-22)
(0.000703822 -1.22234e-06 7.10092e-22)
(0.000351732 0.000285768 3.6549e-22)
(0.000566411 0.000101265 0)
(0.000644987 0.00180943 0)
(0.000711176 0.00037547 3.88343e-21)
(0.000673536 0.00186136 -6.96369e-22)
(0.000221323 -9.44298e-05 -2.15406e-21)
(0.00062537 0.00177937 7.3565e-22)
(0.000952568 2.51855e-06 2.56049e-24)
(5.84772e-06 0.000452332 0)
(0.00064835 0.00180137 1.97367e-22)
(0.000649572 -0.000106519 2.54007e-21)
(0.000287318 0.000387854 -2.89085e-21)
(1.34197e-05 1.44532e-06 1.16981e-21)
(0.000961119 2.90631e-05 -4.48953e-21)
(0.000261274 -8.57468e-05 5.38855e-21)
(0.000982654 -3.07647e-05 -2.34531e-21)
(0.000828995 -0.00015997 1.46198e-21)
(0.000725161 0.00202799 -1.64488e-21)
(0.000977627 2.32502e-05 3.04623e-22)
(0.000108272 -0.000119799 -1.74526e-21)
(0.00064346 0.00179687 6.40669e-24)
(0.000524014 0.00126141 -7.18857e-22)
(0.000961505 4.42686e-06 -1.14013e-21)
(0.000922519 8.57152e-06 3.95439e-21)
(0.00111691 0.000159487 0)
(0.000651934 0.00178258 -5.67241e-22)
(0.000356226 4.79882e-06 1.47022e-21)
(1.96001e-05 2.7862e-05 2.00247e-21)
(0.000527263 0.000909644 -3.62485e-22)
(0.000528245 0.00180085 -1.64519e-21)
(9.87232e-06 1.25521e-06 -1.16571e-21)
(2.86848e-05 0.000277345 -8.23074e-23)
(0.000727152 0.00190596 0)
(0.000671277 0.00177048 8.66553e-23)
(0.000685745 0.000207735 -1.18561e-21)
(0.00098755 -2.42736e-05 -5.43208e-21)
(3.00274e-05 0.000305765 0)
(0.000643607 0.00179383 5.24682e-23)
(0.000646215 0.00179874 -8.60088e-22)
(0.000720534 0.00202712 1.7492e-23)
(0.00071622 0.0020038 0)
(0.000608974 0.000563898 -1.94976e-21)
(0.000169606 -0.00019512 0)
(0.000631849 -4.26355e-05 1.3387e-21)
(0.000746369 0.00202023 4.07746e-21)
(0.000659888 0.00179625 4.91947e-21)
(0.000626002 0.00181987 0)
(0.000655495 0.00181161 -1.73464e-24)
(0.000958818 1.65042e-05 0)
(0.000279744 4.90811e-05 1.54551e-21)
(0.000358088 4.99181e-05 -2.66883e-21)
(0.000427616 -0.000155081 0)
(0.000652631 0.00177685 2.24132e-22)
(-1.5234e-06 -0.000266958 2.19783e-21)
(0.000723195 0.0020208 1.69135e-21)
(0.000739124 0.00204418 -1.04981e-21)
(0.000518883 0.00170622 -4.85107e-22)
(0.00101693 5.20214e-05 0)
(0.000915847 1.72218e-05 1.45292e-22)
(0.00021653 -7.2257e-05 -3.76565e-22)
(0.000705584 0.00198688 1.26393e-21)
(1.92997e-05 2.10828e-07 0)
(0.000729866 0.00201702 0)
(0.000643347 0.00187895 9.73539e-22)
(0.000842452 -8.48266e-05 0)
(0.000135034 -3.52918e-05 -7.52381e-23)
(0.000952365 2.46961e-06 -5.4785e-22)
(1.77986e-05 0.00026059 7.17793e-22)
(0.000128491 -0.000145009 8.92419e-22)
(0.000821758 7.35226e-05 1.33375e-21)
(0.00116549 0.00139329 -3.76906e-21)
(2.29536e-05 4.1393e-05 -2.09709e-21)
(0.000723444 0.00195764 2.99036e-21)
(0.000674367 0.00188992 -2.30195e-21)
(0.00100846 1.00189e-05 0)
(0.000852959 3.48911e-05 -1.12221e-23)
(0.000656109 0.00188085 1.58722e-21)
(0.00012554 -5.10337e-05 -1.20735e-21)
(0.000657256 0.00180444 -1.14024e-22)
(0.000751683 0.00198933 8.18844e-22)
(0.000715399 0.00197693 -2.60698e-21)
(2.99083e-05 5.64411e-05 -6.29446e-22)
(7.70258e-05 0.000256327 7.78268e-23)
(5.06823e-05 8.73287e-06 1.3147e-21)
(1.54538e-05 2.61969e-05 5.26174e-22)
(0.000611529 0.00180195 0)
(0.000165869 -6.05401e-05 -1.19914e-25)
(0.000741735 -1.14777e-05 0)
(2.10544e-05 4.31701e-05 2.60068e-22)
(0.000657462 0.00176978 8.61571e-22)
(9.7841e-05 -4.2303e-05 0)
(0.000289556 0.000692168 -1.65041e-21)
(0.000947911 -1.89373e-05 0)
(1.60386e-05 -1.84233e-05 6.02429e-22)
(0.000727074 -0.000191307 0)
(0.000957912 6.6289e-05 0)
(0.000732454 4.5095e-05 7.21394e-22)
(3.02871e-05 -0.00027867 0)