/*--------------------------------*- C++ -*----------------------------------*\
  =========                 |
  \\      /  F ield         | OpenFOAM: The Open Source CFD Toolbox
   \\    /   O peration     | Website:  https://openfoam.org
    \\  /    A nd           | Version:  8
     \\/     M anipulation  |
\*---------------------------------------------------------------------------*/
FoamFile
{
    version     2.0;
    format      ascii;
    class       volVectorField;
    location    "5";
    object      U;
}
// * * * * * * * * * * * * * * * * * * * * * * * * * * * * * * * * * * * * * //

dimensions      [0 1 -1 0 0 0 0];

internalField   nonuniform List<vector> 
3080
(
(0.00011093 6.31993e-05 -1.15017e-20)
(0.00106934 0.00174362 -2.69967e-21)
(0.00102218 -8.43671e-06 5.21986e-22)
(9.72905e-05 8.24036e-05 0)
(0.00143779 0.000193226 -5.18318e-21)
(0.000657535 -0.000359441 0)
(9.70275e-05 0.000571713 2.32074e-21)
(0.00240009 0.00406136 0)
(0.00104139 -4.29739e-06 -3.99547e-21)
(0.00097152 1.4076e-05 5.58735e-21)
(1.84605e-05 6.88835e-05 0)
(0.000918852 1.61007e-05 0)
(0.000954122 0.00236909 7.60249e-21)
(0.00155809 0.000207641 -7.07814e-23)
(3.02244e-05 0.000167444 -2.20446e-21)
(0.00152311 0.00106855 0)
(0.00100203 -2.3597e-05 8.41249e-21)
(1.76991e-05 -7.75072e-05 2.31823e-21)
(1.3714e-05 5.15195e-05 0)
(0.00107612 5.64016e-05 -4.25265e-21)
(0.00219014 0.00403818 1.20191e-20)
(0.000928498 -0.000477995 1.25844e-21)
(0.00117438 -5.21283e-05 -7.61277e-21)
(0.00244717 0.00397461 -3.97239e-21)
(0.00131597 0.000129952 -2.00253e-20)
(0.000250659 0.0016969 -2.21749e-23)
(8.68684e-05 -0.000314286 -4.77449e-21)
(0.00167951 0.000699176 2.64377e-21)
(1.00726e-05 2.81401e-05 -2.78604e-22)
(0.00137398 0.00099455 1.28768e-20)
(0.00126915 0.00277398 1.8492e-20)
(0.00197309 0.00452183 -7.53267e-21)
(0.00040308 0.00213656 -9.69856e-21)
(0.00189824 0.00391278 3.53016e-21)
(0.00144382 0.00427862 5.12092e-21)
(0.000967221 -1.20963e-05 1.6958e-21)
(0.000216818 -0.000694388 -1.52397e-21)
(0.000536566 0.00413135 0)
(0.000613147 -0.000122569 2.02404e-21)
(0.000646024 0.00152475 9.77362e-21)
(0.000232749 6.91613e-05 0)
(0.000585103 -5.90394e-05 -4.12338e-21)
(0.000881227 -4.83898e-06 7.03664e-21)
(0.000446942 -5.51143e-05 0)
(0.00182655 0.00029523 0)
(4.22308e-05 0.000226169 -5.97808e-22)
(0.000958198 0.000101196 -6.7644e-21)
(8.3519e-06 2.70667e-06 -2.20926e-21)
(4.25078e-05 -6.84e-06 5.23228e-21)
(0.000314171 0.00200539 5.73918e-21)
(0.000519625 -5.993e-05 -4.31655e-22)
(0.000797888 0.00354578 -1.79029e-22)
(0.000198747 0.00107626 6.24829e-21)
(0.000719342 -0.000310091 1.10081e-21)
(0.00169465 0.00025792 6.97743e-23)
(0.000904994 4.94376e-06 0)
(0.000907321 7.6341e-06 -1.14818e-21)
(0.00133411 0.00240092 -7.45568e-22)
(0.00160052 0.00332662 4.71457e-21)
(0.00102853 2.10345e-05 -6.99596e-21)
(0.00135616 0.00255858 6.04343e-22)
(0.0013171 0.00248768 0)
(0.00134141 0.002407 -5.37514e-22)
(0.000919027 -4.16994e-05 0)
(0.00241241 0.00398995 -1.511e-21)
(0.00233774 0.00386398 -1.44524e-21)
(2.748e-05 -0.000148304 1.47814e-21)
(0.000682253 -0.00014808 4.29784e-21)
(0.00220834 0.00378766 -2.14882e-22)
(0.00134148 0.00240608 9.71117e-22)
(4.24424e-05 -0.000195144 1.02621e-24)
(0.00223136 0.00380105 -5.96798e-22)
(0.00187959 0.00391211 4.65021e-21)
(0.00133966 0.00240311 1.50905e-21)
(0.000356915 -9.12099e-05 -8.29289e-21)
(0.00205698 0.00399489 0)
(0.000325374 -7.3613e-05 -2.32402e-22)
(0.00223935 0.00380218 -3.8317e-22)
(0.000519876 0.000155376 -1.64694e-20)
(0.000348786 6.88214e-05 -1.05691e-20)
(0.00206694 0.000433527 0)
(7.08344e-05 -0.000190563 -1.20345e-21)
(0.00133636 0.00240061 -1.8246e-21)
(0.00138673 0.00286683 3.25572e-21)
(0.00104985 0.000189789 2.04426e-21)
(0.00224179 0.0038016 5.75826e-22)
(0.000964305 0.000181118 4.30589e-21)
(0.00241681 0.00398523 -8.42253e-22)
(0.00234218 0.00385941 -4.64552e-22)
(0.000951078 0.000129147 5.98766e-24)
(0.0022419 0.00380044 0)
(0.00133181 0.00239682 4.1895e-22)
(0.00217969 0.00378343 -1.38915e-22)
(0.00135478 0.00255017 1.5263e-21)
(0.00131612 0.00247986 -1.69057e-21)
(0.00103914 -9.25147e-06 1.08031e-21)
(0.00224295 0.0037982 7.81763e-22)
(0.00241593 0.00398337 2.41936e-21)
(0.00234139 0.00385765 2.60742e-21)
(0.000555473 0.000179354 2.02354e-21)
(0.000597404 0.000235275 0)
(0.00240048 0.00398586 -4.38678e-22)
(0.00232553 0.00385991 -6.09591e-22)
(0.00203179 0.00393163 4.81422e-21)
(0.000897157 0.00027076 1.33003e-21)
(0.0013312 0.000830226 2.44906e-23)
(1.31108e-05 -4.70773e-05 -6.55886e-22)
(0.00224348 0.003795 -1.81364e-21)
(0.00135163 0.00254602 1.80717e-21)
(0.00131302 0.0024759 1.70287e-21)
(0.00241503 0.00398142 0)
(0.0023406 0.00385564 0)
(0.000493149 -0.00015165 0)
(0.0024161 0.00398824 -2.18172e-22)
(0.0023416 0.00386227 8.90388e-22)
(0.00217948 0.00404015 2.40704e-21)
(0.0010058 0.000211968 -7.58848e-21)
(0.00238643 0.00398801 8.20431e-23)
(0.00230937 0.00386217 8.92382e-23)
(0.00134948 0.00254225 -2.01294e-21)
(0.00131085 0.00247228 -2.169e-21)
(0.001017 1.962e-05 -2.17986e-21)
(0.0010833 6.0051e-05 -2.49973e-24)
(0.00241581 0.00398711 7.60075e-22)
(0.00234144 0.00386128 1.07898e-21)
(4.31535e-05 0.000424857 -6.25932e-22)
(0.000254205 -1.26256e-05 6.56509e-21)
(0.00241361 0.00398007 -2.51932e-21)
(0.0023392 0.00385353 -2.71286e-21)
(0.00169649 0.000379529 -4.47072e-21)
(0.00241399 0.00398662 -1.11365e-21)
(0.0023396 0.00386086 -1.52309e-21)
(0.000568488 0.000264584 7.0548e-21)
(0.0024134 0.00398556 0)
(0.00233885 0.00385986 0)
(1.8629e-05 0.000111422 2.31346e-20)
(0.00101215 -0.000146299 1.00167e-20)
(0.000102444 1.63836e-05 2.90975e-21)
(0.0024118 0.00398218 6.91379e-22)
(0.00233756 0.00385255 3.70893e-21)
(0.00223776 0.00379113 -1.36613e-21)
(0.0013272 0.00238142 6.50318e-22)
(0.000462632 8.77812e-05 -1.1226e-20)
(0.00241466 0.00398516 -1.42718e-21)
(0.00234003 0.00385938 -1.54e-21)
(0.000945614 0.00171578 -2.77883e-21)
(0.000351109 4.17598e-06 -1.25179e-21)
(0.00134604 0.00253364 3.05014e-22)
(0.0013071 0.0024642 0)
(0.0013585 0.00256379 6.4159e-22)
(0.00131932 0.00249287 6.9604e-22)
(0.000220033 -1.22331e-05 7.46573e-21)
(0.00099173 6.2384e-05 3.11757e-21)
(0.000570377 0.000329971 0)
(0.000312629 -7.92186e-06 -1.16663e-21)
(0.00240729 0.00400074 -3.05043e-21)
(0.00233718 0.00385236 -2.43947e-21)
(0.00169169 0.00371231 0)
(0.00133351 0.00240381 5.90285e-22)
(0.000618906 0.000310161 -7.12148e-21)
(0.00223681 0.00379254 -1.53351e-21)
(0.00138739 0.00255158 -4.07126e-22)
(0.00130423 0.00246115 1.07199e-23)
(0.00162613 0.000274722 1.96632e-21)
(0.00130809 0.00237874 3.32605e-22)
(0.00132542 0.00237577 -7.34345e-22)
(8.8698e-05 3.85521e-05 0)
(0.000928065 -0.000126844 -5.91168e-21)
(0.00133958 0.00240859 2.0369e-21)
(0.00134521 0.00252851 -3.35777e-22)
(0.00130498 0.00246028 0)
(0.000961086 0.000126025 4.07305e-21)
(0.00221591 0.0037847 -2.02943e-21)
(0.00223378 0.00379743 3.28255e-21)
(0.00163715 0.00350081 2.11542e-21)
(0.00133986 0.00240718 0)
(0.00130211 0.00245455 4.49615e-22)
(0.00143811 0.00251628 2.70991e-21)
(0.00019078 -4.10825e-06 -4.16179e-26)
(0.00199223 0.00409788 2.66502e-23)
(0.00189435 0.00396582 2.47594e-23)
(0.00183328 0.00386146 0)
(0.0022422 0.00379101 9.94187e-22)
(0.00132696 0.0023719 -3.94726e-21)
(0.00155053 0.00245972 8.88431e-21)
(0.000978957 6.78664e-05 3.38658e-21)
(0.00223193 0.00381007 -1.71365e-21)
(0.00133796 0.00240367 -3.32434e-22)
(0.00134769 0.00252605 3.65217e-22)
(0.00130337 0.00245994 -3.13773e-21)
(8.13834e-05 -0.000167456 1.10734e-20)
(0.00224011 0.00378984 4.36612e-21)
(0.000732208 0.000536189 -3.69852e-21)
(0.0024047 0.00388918 -1.07215e-21)
(2.82412e-05 -4.34473e-05 1.33688e-21)
(0.00241491 0.0039794 -1.95809e-23)
(0.00234053 0.00385352 -3.10777e-21)
(6.14301e-05 0.000462046 3.99288e-22)
(0.00140995 0.00255006 -3.36276e-21)
(0.00130381 0.00246233 -3.59627e-21)
(0.00134713 0.00255176 -3.88625e-22)
(0.00130743 0.00248036 -4.23503e-22)
(0.00133388 0.00240081 0)
(0.00133157 0.0023146 0)
(0.00223881 0.00378949 -1.13112e-21)
(0.00238883 0.00402572 -8.41084e-22)
(0.00233626 0.00384958 0)
(0.00133438 0.00237321 4.25712e-21)
(0.00221116 0.0038158 -1.88403e-21)
(9.8105e-06 -1.18675e-05 2.74531e-21)
(0.00135407 0.00255042 1.96581e-22)
(0.00131537 0.00248015 1.73782e-21)
(0.00108909 7.68e-06 1.01783e-20)
(0.000178091 2.32233e-06 -3.27508e-20)
(0.000786759 0.00157882 5.17166e-21)
(0.00089239 7.76488e-06 -1.42806e-20)
(0.00223865 0.00379008 -2.46161e-21)
(0.00130318 0.0024391 -4.79696e-22)
(0.00141261 0.00246238 9.25527e-22)
(0.00132985 0.00239703 2.26795e-21)
(0.00135991 0.00256188 9.49437e-22)
(0.00132077 0.0024912 2.0582e-22)
(0.0023541 0.00381115 0)
(0.00135091 0.00254666 0)
(0.00131225 0.00247653 2.44106e-22)
(0.000633905 0.000585948 -6.42831e-21)
(0.00123828 4.74151e-05 2.68804e-21)
(0.000450464 0.000550759 -1.01938e-20)
(0.00136055 0.00255951 7.9325e-22)
(0.00132143 0.00248893 -1.28508e-22)
(0.00222389 0.00399927 -4.26049e-21)
(0.000597958 0.000510339 3.81037e-21)
(0.00135146 0.00218404 -5.13678e-22)
(0.0013494 0.00237549 4.57046e-21)
(0.00102896 0.000188454 3.95367e-21)
(0.00243475 0.00379372 0)
(0.0022126 0.00395322 -4.07755e-21)
(0.00135985 0.00255677 1.09705e-21)
(0.00132089 0.00248624 1.18562e-21)
(0.000111558 0.0001087 -1.17873e-20)
(0.00134891 0.00254338 0)
(0.00131016 0.00247342 0)
(0.000967805 0.000167133 2.96493e-21)
(0.00236791 0.00407186 3.96873e-21)
(0.00216725 0.00396947 -9.77856e-23)
(0.00232634 0.00421675 0)
(0.00224181 0.00408126 -4.41788e-23)
(0.00218054 0.00393191 -3.98854e-21)
(0.000950493 2.17073e-05 0)
(0.0013592 0.00255464 0)
(0.00132036 0.00248416 1.32201e-21)
(0.00103611 0.00279656 0)
(0.00229735 0.00404764 -3.59693e-21)
(0.00134536 0.00257002 1.78323e-23)
(0.00130221 0.00249504 2.92153e-22)
(0.00147222 0.0017711 -2.12127e-22)
(0.00229175 0.0040629 -6.8223e-21)
(0.00135704 0.0025532 1.24316e-21)
(0.00131834 0.00248279 2.82996e-21)
(0.00223362 0.00397799 4.21324e-21)
(3.85976e-05 3.55389e-06 9.43794e-21)
(0.00241133 0.00402206 3.9346e-21)
(0.002338 0.00385161 0)
(0.00216306 0.00393267 3.59296e-21)
(0.00226694 0.00407901 1.07135e-23)
(0.00216071 0.00392675 -3.77332e-21)
(0.00227645 0.00407435 3.46641e-21)
(3.03851e-05 -3.85208e-05 -7.57965e-23)
(0.00216181 0.00393504 5.48406e-23)
(0.00224388 0.00407191 3.19688e-21)
(0.000882302 -2.09986e-05 1.56961e-20)
(0.00134552 0.00253288 2.51815e-21)
(0.0013063 0.00246361 3.03953e-21)
(0.00132426 0.00237941 6.85239e-22)
(0.00237588 0.00408044 3.61969e-21)
(0.000572308 0.000591352 6.04381e-21)
(0.00216343 0.00393158 -3.08444e-23)
(0.0022361 0.00406071 0)
(0.000125468 0.000113133 -6.07037e-21)
(0.00216445 0.00393112 0)
(0.00223473 0.0040569 0)
(0.00220172 0.00394177 4.11911e-21)
(0.00216447 0.00392931 -3.01365e-21)
(0.00223493 0.00405516 -8.2695e-21)
(0.00211776 0.00385436 5.77107e-22)
(0.00215821 0.00393425 -1.05901e-20)
(0.00224876 0.00407354 0)
(0.00215045 0.00379671 7.35483e-21)
(0.00133018 0.00239423 0)
(0.00216337 0.00392693 0)
(0.00223388 0.00405273 0)
(0.00214939 0.00380669 -1.59234e-25)
(0.00134589 0.00252846 3.35395e-22)
(0.00130412 0.00246129 -2.96461e-21)
(0.00132336 0.00237432 -2.06919e-23)
(0.00216254 0.0039277 -2.58535e-21)
(0.00223337 0.00405397 -8.00966e-23)
(0.0029108 0.00345436 1.53143e-20)
(0.00201963 0.00413302 -7.38934e-23)
(0.00217427 0.00425881 -1.21764e-22)
(0.00209491 0.00413174 4.6961e-24)
(0.00215273 0.00381097 4.81789e-23)
(0.00215753 0.00381287 3.32987e-21)
(0.00216229 0.00392495 0)
(0.00223314 0.00405122 0)
(0.00133004 0.00239152 -2.15231e-21)
(0.00216222 0.00392335 -2.19948e-21)
(0.00223319 0.00404948 -2.08317e-21)
(0.00215849 0.00393228 0)
(0.00223545 0.00406286 -4.15694e-23)
(0.00216067 0.00381078 6.04439e-21)
(0.000904111 1.49018e-05 4.8291e-21)
(0.00216137 0.0039224 -2.06691e-21)
(0.00223233 0.00404841 0)
(0.00224394 0.00370891 1.99331e-21)
(0.00216162 0.00380855 -3.52411e-23)
(0.00229043 0.00406151 -1.52572e-20)
(0.00215555 0.00381317 -3.3134e-21)
(0.00216409 0.00392118 -1.80907e-21)
(0.00223466 0.00404719 -8.0364e-23)
(0.0021595 0.00381246 -6.39832e-21)
(0.00135049 0.00252972 -2.93633e-21)
(0.00130258 0.00246153 -3.18321e-21)
(5.78803e-05 0.000388526 5.74617e-22)
(0.00132541 0.00237138 3.1798e-21)
(0.00133024 0.00238835 2.88138e-21)
(0.00216075 0.00380652 -2.52453e-21)
(0.00216577 0.00391909 1.51344e-21)
(0.00223653 0.00404532 1.40196e-21)
(0.00216015 0.00392921 2.78105e-21)
(0.00223112 0.00405515 5.27503e-21)
(0.00215996 0.00393025 -6.44523e-21)
(0.0022303 0.00405721 -2.97411e-21)
(0.00216302 0.00391615 0)
(0.00223412 0.00404234 1.23224e-21)
(0.00215923 0.00380633 -3.72634e-23)
(0.00215889 0.00391382 1.15565e-21)
(0.00223038 0.0040393 1.06955e-21)
(0.00215856 0.00380425 0)
(0.00132925 0.00238544 9.88228e-24)
(0.00216156 0.00381 -5.93707e-21)
(0.0013475 0.00253803 0)
(0.00130876 0.00246833 2.4453e-21)
(0.00215973 0.00391882 0)
(0.00223041 0.00404458 -8.22999e-22)
(0.00102541 5.00933e-05 -3.14933e-24)
(0.00215802 0.00380173 1.8893e-21)
(0.00133426 0.00237181 2.62624e-21)
(0.00215707 0.00391886 1.40088e-21)
(0.0022277 0.00404513 1.28891e-21)
(0.00135274 0.0031086 -8.01905e-21)
(0.00215965 0.00393012 6.02081e-21)
(0.00223003 0.00405588 -2.91431e-23)
(0.00216023 0.00381199 6.33659e-21)
(0.000101713 3.76645e-05 -6.45521e-21)
(0.00215736 0.00379889 1.69438e-21)
(0.000395393 -8.83104e-05 0)
(0.00220454 0.00405635 -8.90398e-22)
(0.00213429 0.00393072 -9.75216e-22)
(0.00174309 0.00147031 1.37743e-20)
(0.000926122 3.97489e-05 0)
(0.00216158 0.00380813 2.6405e-21)
(0.00215715 0.00379722 2.57222e-24)
(0.00215644 0.00379616 1.10072e-21)
(0.00134664 0.00238166 3.72219e-21)
(0.00215501 0.0037968 1.71984e-21)
(0.000107431 0.000733829 5.17591e-21)
(0.00215054 0.00380497 0)
(0.00215948 0.00392546 -2.8513e-21)
(0.00223051 0.00405126 0)
(0.00091698 2.3671e-05 0)
(0.00216163 0.00380999 5.78357e-21)
(0.00103254 0.00193323 3.9053e-21)
(0.0021063 0.00473821 7.97906e-21)
(0.00216041 0.00380718 7.15024e-21)
(0.00063312 0.000445834 -1.62079e-20)
(0.0019976 0.00429734 -1.35812e-21)
(0.00215992 0.00392773 2.5557e-21)
(0.00223068 0.00405358 4.79459e-21)
(0.000985869 4.93236e-05 -9.5642e-21)
(0.00105086 0.0013809 -1.72766e-20)
(3.22846e-05 -9.34349e-06 -1.3596e-25)
(1.12308e-05 9.77895e-05 5.57623e-21)
(0.00216069 0.00392105 1.81064e-21)
(0.00223135 0.0040469 3.43871e-21)
(0.0021616 0.00380821 -2.65942e-21)
(0.00219131 0.00378692 1.39837e-22)
(0.00215911 0.00380389 8.60358e-23)
(0.00215895 0.00392596 0)
(0.00222985 0.0040522 -2.30632e-21)
(4.33909e-05 -1.05295e-05 4.05306e-21)
(0.00135483 0.0025395 -3.34143e-23)
(0.00130228 0.00246012 3.34104e-21)
(0.0022528 0.00407724 -3.28158e-21)
(0.00216271 0.00391915 8.68294e-23)
(0.0022334 0.00404542 8.09368e-23)
(8.00967e-05 0.00053961 -2.76903e-21)
(0.00216084 0.00380697 -2.40461e-21)
(0.00248974 0.0041094 0)
(0.00167164 0.0036988 2.56752e-21)
(0.000419075 0.000352036 4.53266e-24)
(0.00215856 0.00380081 1.76386e-21)
(0.00237195 0.00408872 -3.71532e-21)
(1.88319e-05 -4.73395e-05 -6.56754e-22)
(0.00215867 0.00392417 -1.00832e-23)
(0.00222954 0.00405032 4.16558e-21)
(0.00129018 0.000975016 -6.95403e-21)
(0.00215807 0.00379876 0)
(0.00215971 0.00380738 0)
(0.00215836 0.00392316 2.05485e-21)
(0.00222926 0.00404917 0)
(0.000971413 0.000129533 1.08801e-21)
(0.00224717 0.0037307 0)
(0.002158 0.00391553 -4.41661e-23)
(0.00222876 0.00404096 1.82315e-21)
(0.00112846 0.00115992 -1.4919e-20)
(0.00215764 0.00379778 1.20002e-21)
(0.00215932 0.00380408 -1.99005e-21)
(0.00215804 0.00392179 0)
(0.00222895 0.00404763 3.94747e-23)
(3.4209e-05 -3.42652e-05 -3.84211e-21)
(0.000962516 0.000270214 5.76508e-22)
(0.00215613 0.00379773 -9.20706e-22)
(0.00210974 0.00361349 1.03338e-22)
(0.00201948 0.0034803 1.2175e-22)
(0.00194978 0.00338079 1.46911e-22)
(8.47247e-05 -9.45442e-05 2.63859e-20)
(0.00229133 0.00387597 0)
(0.00236993 0.00400356 0)
(3.06311e-05 0.000139912 -9.51471e-26)
(0.00215824 0.00380152 0)
(0.00216002 0.00392053 -1.61364e-21)
(0.00223084 0.00404665 -3.07076e-21)
(0.00214989 0.00392513 1.6756e-21)
(0.00222027 0.00405095 1.53636e-21)
(0.000167704 8.87441e-05 -9.43146e-21)
(0.00143066 0.000125768 1.40077e-20)
(0.00111702 -0.000245137 -7.24797e-21)
(0.000954846 0.00017278 1.23893e-20)
(0.00104241 0.00067742 -1.04218e-20)
(0.00231873 0.0038572 1.86195e-23)
(0.00239442 0.00398312 1.71913e-23)
(0.000939618 3.57853e-05 -2.23658e-21)
(0.00215355 0.00380278 6.7504e-22)
(0.00241742 0.00399243 1.8153e-22)
(0.00234264 0.00386636 -2.17387e-22)
(0.00234171 0.00434526 -1.23375e-23)
(0.00225858 0.00420991 2.6914e-22)
(0.00217976 0.00407301 2.68427e-23)
(9.24156e-05 -0.000106942 -1.68549e-20)
(0.00241843 0.00399223 4.60231e-22)
(0.00234386 0.0038662 2.38584e-22)
(0.00241683 0.00399128 0)
(0.00234231 0.00386532 -1.17393e-21)
(0.00241543 0.00399064 0)
(0.00234083 0.00386472 3.23133e-22)
(0.00241604 0.00398952 1.40228e-21)
(0.00234125 0.00386357 1.47091e-21)
(0.00215814 0.00379903 3.10489e-21)
(0.000546395 -7.28706e-05 0)
(0.00216157 0.00391706 -2.8493e-21)
(0.00223264 0.0040432 -2.63848e-21)
(0.00229475 0.00427459 -2.46261e-22)
(0.00221847 0.00414629 -5.29472e-23)
(0.00218437 0.0041169 8.50426e-23)
(0.00228784 0.00437535 1.12973e-22)
(0.0022043 0.0042409 2.09807e-22)
(0.00358652 0.000888758 9.95616e-21)
(0.00241572 0.00398226 -2.85438e-21)
(0.00234117 0.00385639 0)
(0.00136695 0.00155817 0)
(0.000789502 1.26029e-05 0)
(0.000162895 5.79472e-06 -5.10159e-21)
(0.00215885 0.00391412 0)
(0.00223007 0.00403993 0)
(4.63556e-05 -3.12458e-05 0)
(-0.000134721 0.00195442 9.4726e-21)
(-0.000281905 0.00170606 -9.74479e-21)
(3.20203e-05 0.000185244 -2.13651e-22)
(0.00240816 0.00401284 -3.90804e-21)
(0.00233854 0.00385365 5.91444e-21)
(0.00215786 0.00379782 1.27628e-21)
(0.000837356 1.73381e-05 8.6228e-21)
(0.000943005 2.79051e-05 0)
(0.000768744 -3.66659e-06 -5.31544e-21)
(0.00237162 0.00433762 3.18294e-22)
(0.00229176 0.00420179 0)
(0.00224315 0.00379526 -2.9963e-21)
(0.00224091 0.00379463 -2.13616e-21)
(0.00114934 3.56733e-05 -1.78087e-23)
(0.00215524 0.00391554 3.11895e-21)
(0.00222614 0.00404102 1.94277e-21)
(0.00223895 0.00379451 0)
(0.00215043 0.00436498 2.06273e-21)
(0.00223831 0.00379445 4.17961e-23)
(0.00026949 0.000115193 0)
(0.00105294 0.00246994 8.74018e-21)
(9.39759e-05 -7.04184e-05 -4.17373e-27)
(7.38584e-05 9.52276e-06 3.99243e-25)
(0.000246249 0.00013924 8.96367e-21)
(0.00121226 0.00149341 2.08732e-20)
(0.000844508 4.21846e-05 -1.79637e-24)
(0.000958997 0.000105739 -7.45267e-21)
(0.0021564 0.00379724 9.67802e-22)
(0.00222977 0.00407627 1.59464e-22)
(0.000341631 0.000244599 0)
(0.000906078 0.000633251 -9.92397e-21)
(0.00231618 0.000207671 1.37965e-20)
(3.44261e-05 -2.89118e-05 -4.49416e-21)
(0.00240558 0.00401758 0)
(0.000991361 0.000111399 -1.99007e-21)
(0.00215506 0.00391912 -2.40808e-21)
(0.00222567 0.00404526 -1.47211e-21)
(0.000972473 3.82144e-05 0)
(0.000851269 0.00400151 -6.89359e-21)
(0.000451854 0.000466113 -2.11829e-20)
(0.00213651 0.00382191 4.08362e-22)
(0.000904643 -4.3807e-05 -7.51102e-21)
(0.000122276 -0.000132241 1.18833e-20)
(0.000110746 -0.000131408 -7.94806e-21)
(0.0019676 0.00430917 -4.36549e-21)
(0.000916953 -5.94105e-07 0)
(0.00240991 0.0039884 6.09769e-22)
(0.00233517 0.00386242 0)
(0.00215427 0.0038004 0)
(0.00122659 0.000767853 -2.14378e-20)
(0.000863994 5.98157e-05 2.52157e-26)
(0.00215067 0.00391908 -1.89454e-21)
(0.00222133 0.00404508 -1.74098e-21)
(0.000126406 -0.000102676 2.25991e-20)
(0.000988438 4.42836e-05 1.1044e-21)
(0.000880817 6.02238e-05 0)
(0.0022372 0.00380089 1.16394e-21)
(0.000651683 0.000476138 -1.59445e-20)
(0.00222563 0.00379796 7.75891e-22)
(0.00137998 0.000218272 0)
(0.000937626 5.56904e-05 0)
(0.00224085 0.00380051 -4.97301e-22)
(0.00241611 0.00398429 4.12266e-22)
(0.00234151 0.00385855 1.703e-21)
(0.00134658 0.000265477 -4.02353e-21)
(0.000227343 0.000139016 8.54644e-21)
(0.00234112 0.00385706 -1.95656e-21)
(0.00241565 0.00398274 -1.81494e-21)
(0.00224105 0.00379965 0)
(0.00233997 0.00385521 2.25306e-21)
(0.00241439 0.0039809 2.09111e-21)
(0.000379078 0.000343276 0)
(0.00233905 0.00385282 -2.68002e-21)
(0.00241343 0.00397915 0)
(0.00233725 0.00385204 -7.42158e-22)
(0.00241167 0.00397969 -6.93311e-22)
(0.00233625 0.00385171 6.33616e-21)
(0.00240762 0.00399011 -7.32924e-22)
(0.00224189 0.00379763 0)
(0.000905886 7.68631e-05 -5.6096e-21)
(0.00217402 0.00401504 4.53151e-21)
(5.41283e-05 -2.54912e-05 1.60826e-20)
(0.000967075 0.000684694 4.92795e-21)
(0.0022426 0.00379468 -8.71374e-22)
(1.18378e-05 3.54549e-05 0)
(0.000291713 0.000234806 -1.3712e-20)
(0.00225349 0.00407911 0)
(0.00219764 0.0036999 3.97158e-21)
(0.00234809 0.00433883 -4.77973e-22)
(0.00226939 0.00420184 3.59445e-22)
(0.000971414 0.000342244 1.09414e-20)
(0.000918276 2.95824e-05 -2.86536e-21)
(0.00069872 0.00192973 -1.38671e-20)
(1.9771e-05 -3.13201e-05 6.47878e-22)
(0.00223712 0.00379047 2.71132e-21)
(0.00223659 0.00379145 0)
(0.00223339 0.00379462 0)
(0.000166006 0.000132262 0)
(0.00221642 0.00382034 1.89926e-21)
(0.00223196 0.00380312 3.46079e-21)
(0.000800994 0.00130012 1.66004e-20)
(0.00212658 0.00456287 1.07099e-20)
(0.00111072 0.000644192 0)
(4.44508e-05 -3.18375e-05 -8.66902e-21)
(0.000937448 1.41994e-05 -5.71367e-25)
(0.000468506 0.00129786 9.14099e-21)
(0.00099511 0.000105826 -6.05487e-22)
(2.6244e-05 -0.000106596 -5.47519e-22)
(0.000301947 0.000134318 0)
(0.000956716 4.14736e-05 1.22281e-20)
(0.000232407 0.000370456 6.0007e-25)
(0.000111125 0.00229348 0)
(0.000926045 8.89486e-05 0)
(0.00211846 0.00429336 -4.51627e-21)
(2.57594e-05 -2.80432e-05 3.31333e-21)
(0.000460046 0.000147798 1.60551e-20)
(0.000999714 -0.000776875 1.21992e-21)
(0.000716277 0.00115794 1.77407e-20)
(0.00118921 0.000915993 -8.78256e-21)
(2.30742e-05 -2.53092e-05 -1.38495e-20)
(0.00172325 0.00120862 1.53013e-20)
(0.00118113 0.000156762 -3.07655e-21)
(0.000957351 1.40999e-05 -1.03433e-21)
(0.00116827 9.44331e-05 1.06464e-20)
(0.000954979 3.91192e-05 -1.52873e-22)
(1.88033e-05 -3.91389e-05 0)
(0.000956853 -4.14655e-05 -1.77692e-20)
(0.00156993 0.00243698 4.19867e-21)
(0.000934973 7.23365e-05 1.30688e-20)
(3.82793e-05 -7.23002e-05 0)
(-2.39112e-05 0.00180753 -3.62165e-21)
(0.000249548 -0.000276194 0)
(0.000168699 0.000168108 9.94417e-21)
(0.00244868 0.00422064 7.64879e-21)
(0.000946669 1.82458e-05 -1.3892e-21)
(0.000487613 -0.000349601 0)
(0.000508776 0.000131285 9.82019e-21)
(0.000302731 0.000274993 2.5922e-24)
(0.00113525 7.25658e-05 0)
(0.00227413 0.00408684 3.48929e-23)
(2.08792e-05 3.00912e-07 0)
(0.00214745 0.00381459 0)
(0.000268228 0.000302677 0)
(0.00019902 0.00156789 0)
(0.00185002 0.00439517 6.39971e-21)
(0.00249259 0.00411132 7.69885e-21)
(0.000902672 0.000779386 8.77704e-21)
(5.24363e-05 -7.61233e-05 5.27132e-21)
(0.000965146 3.04734e-05 0)
(0.00015515 0.000191609 0)
(0.000498856 0.000237632 -2.33885e-21)
(2.9104e-05 -2.78583e-06 0)
(4.18107e-05 -2.06091e-05 5.27638e-21)
(0.00029527 0.00011059 6.32594e-25)
(0.000173979 0.000150775 0)
(0.000426042 0.000202617 1.22912e-20)
(0.00114885 0.00016412 -3.99416e-21)
(7.48057e-05 -7.64656e-06 -6.56725e-21)
(0.00099983 7.27543e-05 1.50652e-22)
(0.000121871 -0.000163808 2.66209e-24)
(0.00115551 0.000170475 2.52714e-21)
(0.00151437 0.00237159 1.21231e-20)
(0.000959714 4.14802e-05 1.49289e-22)
(4.26157e-05 -8.01572e-05 0)
(0.00122878 0.00313823 0)
(0.000957731 1.61239e-05 -6.57765e-22)
(4.03355e-05 -9.78639e-05 2.93002e-21)
(0.00116072 0.00156655 3.30987e-21)
(0.00127265 0.000442263 2.92043e-21)
(0.000184547 0.00288743 0)
(0.000760436 5.36462e-05 -2.52931e-21)
(1.38929e-05 -1.3486e-06 0)
(-4.28236e-05 0.000769528 7.32734e-21)
(0.000124494 -1.54042e-05 1.02213e-20)
(0.000964059 3.2809e-06 -4.45932e-24)
(0.000262088 -0.000423611 -6.52636e-21)
(0.000574657 0.000992751 -1.64454e-20)
(0.000112822 -2.07862e-05 0)
(0.00115334 0.000696517 -2.84124e-23)
(0.000895256 3.29134e-06 0)
(0.000841049 5.8138e-05 7.58281e-21)
(0.000145436 0.000121696 -5.75498e-21)
(0.000938342 1.0541e-05 2.5541e-21)
(0.00014485 -0.000156471 3.12036e-24)
(0.00228973 0.00420479 4.45794e-22)
(0.00236775 0.00434306 0)
(0.000541662 0.000268189 1.07671e-20)
(0.00106299 0.000892391 -1.84068e-24)
(0.000950253 1.82265e-05 1.27879e-21)
(0.00129858 0.00062863 5.93394e-21)
(7.76811e-05 2.60615e-05 1.37153e-20)
(0.000215743 0.000169659 6.1789e-21)
(0.00084792 8.97766e-05 2.90818e-20)
(0.00101099 -1.16191e-05 -3.07253e-20)
(0.00252511 0.00411527 1.19543e-20)
(0.000133489 -7.63765e-06 2.26728e-20)
(0.000947467 4.18965e-05 0)
(0.000278927 0.000142823 -9.46964e-21)
(0.00020334 0.000131352 8.94175e-21)
(0.000178993 -0.000349948 2.62886e-21)
(0.000155785 0.00012352 1.74204e-20)
(0.000395182 0.000129597 1.07459e-20)
(0.000140612 -0.000126914 2.82617e-24)
(0.000388627 0.000163567 5.95542e-25)
(3.91914e-05 -5.93657e-05 0)
(0.000965871 4.4209e-05 0)
(0.000944901 2.17689e-05 2.18328e-21)
(0.000238605 0.000189811 1.26874e-20)
(0.0003824 0.00014628 0)
(0.000381373 -4.83751e-05 6.96695e-21)
(0.000195851 0.00010793 0)
(0.000946191 2.60906e-05 -2.31286e-21)
(0.000336731 -0.000326865 5.34376e-21)
(0.00017694 -0.000189612 1.52442e-20)
(7.68457e-05 -5.81249e-05 1.6841e-21)
(0.000463428 0.000187711 -2.60964e-24)
(0.000532063 0.000216475 0)
(0.000368728 0.000397926 0)
(0.000951505 2.31721e-05 0)
(0.00019596 0.000182543 -3.61984e-21)
(0.000977436 4.57221e-05 -9.41633e-21)
(0.000132534 -0.000175223 -7.78435e-21)
(0.000289584 0.00152918 5.79833e-21)
(0.000129794 0.000139981 0)
(0.00081885 0.000738397 0)
(0.000411202 7.51914e-07 0)
(0.000951894 -7.59162e-05 1.94976e-20)
(0.000909435 0.000689009 -1.33631e-20)
(9.71472e-05 0.00104277 5.62432e-21)
(4.92518e-05 -7.54561e-05 0)
(0.00177113 0.00445897 5.90182e-22)
(0.000927533 -1.21612e-05 2.45541e-21)
(0.000857144 0.000819487 1.80342e-20)
(0.000929495 -4.00272e-05 -8.65672e-26)
(0.000270026 0.000265359 -9.00274e-21)
(0.00102382 2.65437e-05 0)
(8.01263e-05 6.28333e-05 4.82881e-21)
(0.000201044 -0.000216963 -5.49072e-21)
(0.000315809 0.000170242 1.00158e-20)
(5.28835e-05 -9.59428e-05 -1.08957e-20)
(9.71341e-05 1.52798e-05 -4.14487e-21)
(0.000986003 4.88441e-05 5.5834e-21)
(0.000199653 1.78865e-05 4.59681e-21)
(0.00092438 0.000990386 0)
(0.0011103 0.000169604 1.75087e-20)
(0.000248704 1.35662e-05 0)
(7.97146e-05 -1.50867e-05 -6.28221e-21)
(0.000238371 -0.000229126 -9.67762e-21)
(0.000421141 0.000938707 -6.54049e-21)
(0.000942226 4.85518e-05 1.01589e-20)
(0.000569653 0.000299127 -8.27441e-21)
(8.05438e-05 2.95199e-05 -1.16055e-20)
(0.00141147 0.000645711 -1.42165e-20)
(0.000327143 0.000676991 -2.38814e-20)
(0.000934395 -2.24463e-05 0)
(5.31239e-05 -0.000109639 0)
(0.000964806 1.47132e-05 -1.43318e-22)
(0.000327613 -0.00025963 -9.69412e-21)
(0.00102437 3.72792e-05 5.02774e-21)
(0.000962877 1.06997e-05 -8.98017e-21)
(2.63603e-06 1.44892e-05 -1.11731e-21)
(2.93973e-05 -2.12568e-05 -6.07915e-21)
(0.000281786 -0.000315952 -6.69784e-21)
(0.000121401 -3.03768e-05 0)
(0.000998256 2.85964e-05 0)
(0.000677281 0.000144252 -2.92747e-22)
(2.96793e-05 1.9111e-05 8.10149e-21)
(0.0011104 0.000478933 -1.83335e-21)
(0.00233739 0.00406653 4.16115e-22)
(0.000117279 -5.86872e-05 -3.59621e-25)
(0.00112036 0.000394401 7.30073e-21)
(0.000233188 0.000563353 8.21802e-26)
(8.94712e-05 -5.06484e-05 -4.63076e-21)
(0.00100181 2.95013e-05 0)
(2.41127e-05 -4.74513e-07 -9.04297e-21)
(7.07823e-05 -4.88452e-05 0)
(0.00101654 -1.53887e-05 0)
(0.000919114 1.03039e-05 -2.967e-22)
(0.000714951 0.000285627 -1.57027e-20)
(0.000482877 0.000275866 -6.099e-21)
(0.00111084 0.00129785 1.06634e-20)
(2.59545e-06 2.11169e-05 0)
(0.000247866 0.000261766 9.40494e-21)
(4.67858e-05 3.57649e-06 -5.28463e-21)
(0.000508027 0.000561264 8.41757e-21)
(0.000312801 0.000312272 9.52187e-21)
(0.000963853 2.79562e-05 -2.9563e-22)
(3.27678e-05 1.34421e-05 0)
(0.000225862 1.18142e-05 0)
(4.7656e-06 0.000141785 1.13143e-21)
(-1.24237e-05 0.000654555 -9.06406e-21)
(0.000124838 0.000297509 -6.23412e-25)
(0.0010173 7.77358e-06 -5.40556e-22)
(0.000638448 -0.000262503 -6.53702e-21)
(0.000177394 2.09611e-05 4.76728e-21)
(0.000974791 0.000918443 -1.03542e-20)
(0.00229039 0.00408259 7.94155e-23)
(0.000509577 -0.000245937 -1.59628e-20)
(0.000968075 2.40492e-05 -9.92405e-22)
(0.00091866 0.000835721 -2.80103e-20)
(2.85686e-05 0.000878848 0)
(0.00013452 -9.17454e-05 0)
(0.00125275 0.000592334 0)
(0.000916073 -2.14523e-06 0)
(-9.74156e-07 0.00059828 0)
(0.000847367 9.23178e-05 -4.5124e-21)
(-8.81285e-06 0.000312512 -7.16448e-21)
(0.000963145 5.88814e-05 -1.40667e-21)
(0.000177218 0.000194761 0)
(3.67545e-06 0.000506325 -4.7361e-21)
(-4.14113e-05 0.000778872 -8.42663e-21)
(0.00232981 0.00436813 2.57652e-23)
(0.00115165 0.000105211 -1.74393e-20)
(0.000728045 0.000634466 -4.55827e-21)
(0.000985921 2.16298e-05 0)
(0.000137138 -0.000106699 -1.09455e-20)
(6.87622e-05 4.31841e-05 4.73042e-21)
(0.000134867 0.000159186 8.02159e-21)
(1.18188e-05 0.000285951 3.53902e-21)
(0.000923372 -4.76664e-06 0)
(0.000885314 4.74258e-05 0)
(-8.12654e-06 0.000235242 0)
(0.000849018 0.000635815 7.40607e-21)
(3.43125e-06 0.000178636 2.17459e-21)
(0.000460722 0.000873155 -1.71798e-20)
(0.000220543 0.000111909 9.64808e-21)
(-6.67418e-07 0.000216994 -4.26441e-21)
(0.000881987 -6.22327e-05 0)
(8.91133e-05 -0.00016388 0)
(0.00101068 8.51251e-06 2.4959e-21)
(7.45752e-05 2.41634e-05 -1.83594e-20)
(4.84474e-05 4.86227e-06 7.78893e-21)
(0.000344022 -3.94061e-05 -9.93721e-22)
(-1.81723e-06 0.0001129 -2.87302e-21)
(0.000969903 -6.84713e-05 1.02046e-20)
(0.000946191 3.58357e-06 -1.17998e-21)
(0.000161415 -0.000315851 3.92825e-21)
(3.90782e-05 3.36162e-05 -4.3056e-22)
(0.000242976 0.000114676 1.50729e-25)
(0.000759413 5.50622e-05 0)
(0.000462316 -1.47876e-05 -7.90544e-25)
(0.000291057 0.000173815 -9.07061e-21)
(0.000173826 -0.000157305 0)
(0.00243542 0.00411133 4.41361e-21)
(7.47527e-05 5.22921e-05 5.4623e-21)
(0.000764642 0.00030245 9.54663e-21)
(0.000358001 -0.000567494 1.18757e-20)
(0.00047463 0.000168847 -1.05299e-20)
(0.000379017 8.86866e-05 -9.77019e-21)
(0.000245936 0.000232445 -1.68891e-20)
(0.000151387 0.000161179 -6.19668e-21)
(0.000900631 0.000397054 0)
(1.17993e-06 4.15161e-05 -4.52597e-21)
(0.00100794 4.42702e-07 2.48073e-21)
(0.00101577 1.71533e-05 0)
(0.000914921 2.08885e-05 1.76754e-21)
(0.000650416 0.000128395 5.54445e-21)
(0.000911903 8.6053e-05 0)