/*--------------------------------*- C++ -*----------------------------------*\
  =========                 |
  \\      /  F ield         | OpenFOAM: The Open Source CFD Toolbox
   \\    /   O peration     | Website:  https://openfoam.org
    \\  /    A nd           | Version:  8
     \\/     M anipulation  |
\*---------------------------------------------------------------------------*/
FoamFile
{
    version     2.0;
    format      ascii;
    class       volVectorField;
    location    "5";
    object      U;
}
// * * * * * * * * * * * * * * * * * * * * * * * * * * * * * * * * * * * * * //

dimensions      [0 1 -1 0 0 0 0];

internalField   nonuniform List<vector> 
6388
(
(0.000941521 1.77409e-05 1.27039e-21)
(0.00092476 5.92621e-06 0)
(0.000155405 -1.89393e-05 0)
(0.000864182 0.000321241 -5.09923e-22)
(0.000746167 0.00133865 3.55303e-21)
(0.000644577 0.00110078 -2.59658e-23)
(0.00044635 0.000466255 2.42538e-21)
(0.000612758 0.000784727 2.3879e-21)
(0.000348206 0.000263402 -1.03996e-21)
(0.000120482 0.000645875 0)
(0.000606654 0.00114721 0)
(8.80517e-05 0.000665469 0)
(0.000585162 0.000596704 1.58845e-25)
(0.000663389 0.00120256 2.65268e-21)
(0.000482854 0.000565596 3.54556e-21)
(0.000603416 0.000698745 0)
(0.000543693 0.000887791 2.72208e-21)
(0.000620321 0.00111299 -3.1419e-23)
(0.00027916 0.000570591 0)
(0.00014082 0.000453355 2.69422e-24)
(0.000506367 0.000695567 -1.26576e-21)
(0.000660702 0.000806936 0)
(0.000651133 0.00119847 -1.09157e-21)
(0.000797874 0.00132862 1.06947e-21)
(0.000681932 0.0011414 -2.63376e-21)
(0.000212741 0.000591764 -2.17873e-22)
(0.000646884 0.000593616 0)
(0.000467125 0.000745181 6.39398e-22)
(0.00034472 0.000680428 1.0601e-21)
(0.000716818 0.000253155 -2.53699e-21)
(0.000643258 0.00116495 0)
(0.000653648 0.00119549 1.04598e-21)
(0.000663676 0.0010735 -2.80163e-21)
(0.000611381 0.00122958 1.49919e-21)
(0.000639086 0.00117033 1.9203e-21)
(0.000583583 0.00112342 0)
(0.000686605 0.00112488 6.47761e-22)
(0.000175481 0.000858972 8.71271e-22)
(0.000621863 0.000612633 6.35543e-22)
(0.000579829 0.00116166 1.46981e-21)
(0.000176849 0.00051344 3.01161e-21)
(0.000179713 0.000527769 -1.37384e-21)
(0.000939056 -4.0964e-05 -1.25664e-21)
(0.000645006 0.00120073 4.47763e-24)
(0.00059132 0.000205724 -3.00598e-21)
(0.000303564 0.000743014 -6.192e-22)
(0.000962093 1.82476e-05 -1.2652e-21)
(0.000293267 0.000414327 5.65145e-22)
(0.000984285 0.000243584 -2.44853e-25)
(0.000877107 0.000730565 -1.40024e-21)
(0.000166066 -5.73502e-05 7.2167e-22)
(0.000860117 -1.17407e-06 5.03823e-21)
(0.000331704 0.000440226 -3.70874e-21)
(0.000208564 0.000500218 1.3831e-21)
(0.000138553 0.000705055 1.4527e-21)
(2.88111e-05 6.70374e-05 0)
(0.000755762 0.000840629 2.13717e-21)
(0.000844798 0.00034901 0)
(5.84197e-05 0.000440035 -1.66759e-21)
(0.00034271 0.000468834 -2.10304e-21)
(0.000545705 0.000917972 1.02741e-21)
(0.00069119 0.000334492 0)
(0.000387407 0.000654028 1.05655e-24)
(0.000992485 0.000294453 4.39401e-22)
(0.000432104 0.00106803 2.20523e-21)
(3.78287e-05 2.26082e-06 1.52165e-21)
(0.000548345 0.00082889 1.46746e-21)
(0.000587913 0.00069229 1.15936e-21)
(0.000143444 0.000779777 1.79662e-22)
(3.74586e-05 -2.79969e-06 0)
(0.00139291 0.00106422 -1.56731e-21)
(0.000648489 0.00113771 -1.24702e-21)
(0.00070826 0.00106432 5.04419e-22)
(0.000555056 0.00137988 2.11804e-21)
(9.73532e-06 0.000114112 -2.09097e-22)
(0.000518732 0.000449349 5.92693e-25)
(0.000636308 0.00115657 8.26729e-24)
(0.000581394 0.000322407 -1.67323e-21)
(0.000902674 0.000316364 1.06206e-21)
(0.000655523 0.00113338 -8.23117e-22)
(0.000266838 0.000687095 3.29588e-22)
(0.00043559 0.00132143 -1.83456e-23)
(0.000314803 0.00103872 0)
(0.000306896 0.00101988 -1.7331e-23)
(0.000298173 0.000996567 0)
(0.0003705 0.00117585 -1.83519e-23)
(0.000734836 0.00135542 -1.64109e-21)
(0.000488322 0.00144328 1.92448e-23)
(0.000324792 0.00106873 -9.56038e-25)
(0.000341648 0.00111138 -1.38433e-23)
(0.00039676 0.00124405 -1.45092e-23)
(0.00028871 0.000977723 -1.2973e-23)
(3.7154e-05 2.23606e-06 -4.54591e-21)
(0.000939788 0.000152059 1.57098e-21)
(0.000549639 0.000671154 0)
(0.000902776 0.000189375 0)
(3.86189e-05 7.71838e-07 -3.08784e-21)
(0.000699797 0.00126657 7.70399e-22)
(0.000962474 0.000257007 -2.57329e-21)
(0.00115941 0.00052856 -1.66108e-21)
(0.000298748 0.00059787 -1.86174e-21)
(0.00042674 0.00126306 -7.72462e-24)
(0.000624198 0.000821866 0)
(0.000153976 0.000670875 2.95549e-21)
(0.000151511 0.000677491 -2.16877e-21)
(0.000562952 0.000973886 2.85466e-21)
(0.00031101 0.000316046 -2.61306e-21)
(0.000475648 0.000912681 0)
(0.000392086 0.000659396 1.78343e-21)
(0.000203333 1.293e-05 -2.94922e-21)
(0.000372413 0.000508909 -1.60721e-21)
(0.000660176 0.00111134 -1.38094e-21)
(0.000543131 0.00101146 0)
(3.49318e-05 0.000454906 3.15691e-22)
(0.00100577 9.37114e-05 6.59618e-22)
(0.000999335 0.000128025 -2.248e-21)
(0.000825334 0.0012785 0)
(0.000950402 0.000103431 -5.44894e-22)
(0.000653886 0.000583869 1.6127e-22)
(8.39361e-06 0.000154333 0)
(0.000679992 0.00118846 0)
(0.000194627 -0.00013649 0)
(0.000449367 0.000661215 -2.01332e-22)
(0.000321913 0.000263644 -4.12976e-22)
(0.000659961 0.00113577 -4.28529e-22)
(0.000958396 0.000226807 1.65424e-21)
(0.000409309 0.000288829 -3.10346e-21)
(0.000513072 0.000588092 -2.40271e-21)
(3.60234e-05 0.000208411 -4.75586e-22)
(0.00016095 0.000568649 -1.79046e-21)
(0.000583053 0.00111972 1.05298e-21)
(0.000428002 0.00076879 1.68371e-21)
(0.00028993 0.000303975 -1.35924e-21)
(0.000922294 0.000168542 0)
(2.16465e-05 7.9636e-06 2.7956e-21)
(0.000837397 0.00130638 -9.55894e-22)
(0.000833301 0.0013228 1.42311e-21)
(0.000543336 0.00140026 1.36715e-21)
(0.000613251 0.000293404 -1.87408e-21)
(0.000284093 0.000681551 0)
(0.000658793 0.00121506 3.65627e-22)
(0.000868927 3.55344e-05 -1.07221e-23)
(0.000435103 0.000661264 3.76002e-23)
(0.000694659 0.000223958 2.22817e-21)
(0.000127685 0.000165504 1.19847e-21)
(0.000844299 0.000919836 0)
(0.000277432 0.000359726 1.43555e-21)
(3.52839e-05 -2.99549e-06 2.82953e-21)
(0.000796495 0.000719383 2.67837e-23)
(0.000863448 -1.92088e-05 0)
(0.000410789 0.000772117 -3.24076e-21)
(0.000953719 0.000252049 2.10757e-21)
(0.00028077 0.000710943 -1.72098e-21)
(0.000652539 0.0010678 6.61973e-22)
(0.000148211 0.000697453 2.74348e-22)
(0.000540149 0.000548318 0)
(-2.82325e-05 0.000717376 -1.32811e-22)
(0.000172465 1.79106e-07 1.07676e-21)
(0.000650834 0.00116784 -8.36733e-22)
(0.00082315 0.00127124 2.45962e-21)
(0.000619971 0.000159667 -2.17116e-21)
(0.000984706 0.000144948 -1.99635e-21)
(0.000667438 0.00114376 -2.47059e-21)
(0.000312833 0.000863386 2.07656e-21)
(3.87094e-05 -1.3246e-06 -1.60951e-21)
(0.000590831 0.00110957 0)
(0.000583451 0.00109476 -1.35521e-21)
(0.000595418 0.00110957 1.22028e-23)
(0.000570476 0.00107185 -4.02844e-21)
(0.000165755 -0.00029627 1.99872e-21)
(0.000648484 0.00122346 2.15142e-21)
(0.000414113 0.000758096 -1.227e-21)
(0.000616416 0.000834821 5.40728e-21)
(3.40481e-05 -3.6817e-06 0)
(0.00145954 0.000111522 1.12483e-21)
(0.000660402 0.00121967 4.79538e-21)
(0.000410765 0.00029344 -6.17717e-22)
(0.000140786 -0.000414267 9.79072e-22)
(0.000996353 5.53281e-05 -3.06533e-21)
(0.000420784 0.000768548 0)
(0.00128977 0.000820136 4.24887e-22)
(0.000260791 0.00079875 0)
(0.000647839 0.00122456 -1.08384e-21)
(0.000680108 0.00122809 7.51186e-22)
(0.000676974 0.000866823 -1.55483e-21)
(0.000664555 0.00131444 -3.10603e-21)
(0.000300458 -0.000109184 3.6639e-21)
(0.000670923 0.00116305 2.61131e-21)
(0.000816802 0.000985822 -1.62771e-22)
(0.000580744 0.00106427 -9.87528e-24)
(0.000592367 0.00108669 -5.50597e-21)
(0.000413486 0.000843969 -2.44478e-24)
(0.000643024 0.00112213 9.00011e-22)
(0.000910613 9.25668e-06 0)
(0.000576821 0.000844854 -3.05474e-21)
(0.000294249 -0.000158601 2.24502e-21)
(4.16398e-05 -1.79668e-06 0)
(0.000239295 -0.000151299 1.30974e-21)
(0.000653375 0.0012219 -3.20561e-21)
(0.000715451 0.00126609 1.13573e-21)
(0.000606275 0.00102631 1.80631e-21)
(0.000628768 0.00112698 9.66253e-22)
(2.77808e-05 -5.0915e-06 5.63187e-21)
(0.000572538 0.00106225 1.7383e-21)
(0.000595141 0.00110074 -6.11074e-24)
(0.000585025 0.00108501 0)
(0.00071391 0.00129026 -9.97426e-22)
(0.000701331 0.00129063 -1.16277e-21)
(0.000120332 -5.85052e-05 -5.64938e-26)
(0.000599742 0.000528747 1.11544e-21)
(0.000714198 0.00126396 0)
(0.000711267 0.00130523 8.98638e-22)
(0.000649861 0.00110445 0)
(0.000586124 0.00106487 1.47026e-21)
(0.000666886 0.00121509 -1.57123e-21)
(0.000577325 0.00107282 0)
(0.000586608 0.00109004 7.68792e-22)
(0.000565328 0.00105026 7.60737e-22)
(0.000718152 0.00129738 -8.89883e-22)
(0.000560836 0.00104652 -2.19331e-21)
(0.000768456 0.00135535 -9.90214e-22)
(0.000576022 0.000280729 0)
(0.000797676 0.00145583 -9.52091e-22)
(0.00073599 0.00117278 -2.16235e-21)
(0.000135442 -6.56355e-05 -1.67298e-21)
(0.00063116 0.000996924 -3.9688e-23)
(0.000704223 0.00128722 1.23106e-21)
(0.000669351 0.00121881 8.28618e-22)
(0.000570871 0.00107938 0)
(0.000580499 0.00109658 -7.85052e-22)
(0.000558598 0.0010568 -7.76863e-22)
(0.00042127 0.000931097 -1.22653e-21)
(0.000712336 0.00129492 1.76313e-21)
(0.000285685 0.000368636 -7.9809e-22)
(0.000419096 0.000760997 2.49721e-21)
(0.000758066 0.00134313 -1.70191e-21)
(0.000464144 0.0010282 5.85692e-21)
(0.000818402 0.00149237 1.4123e-21)
(0.000678242 0.00118834 -1.12942e-21)
(0.00071335 0.00125696 -2.49933e-21)
(0.00061174 0.00106579 0)
(0.000621038 0.00108258 0)
(0.000599174 0.00104344 0)
(0.000696579 0.00136433 1.41004e-21)
(0.00059658 0.00108475 1.69447e-23)
(0.000606267 0.00110194 1.6722e-23)
(0.00058392 0.00106201 1.65821e-23)
(0.00067307 0.00123623 1.56405e-21)
(0.000703428 0.00127215 4.61256e-22)
(0.00063417 0.00113785 0)
(6.6306e-06 -6.10558e-05 0)
(0.000790666 0.00137893 -3.80271e-22)
(0.000718419 0.00128484 0)
(0.000584735 0.00106075 6.59247e-24)
(0.00059368 0.00107654 -1.14278e-21)
(0.000572532 0.00103869 -1.10416e-21)
(0.000659035 0.00122068 -1.03611e-21)
(0.000662544 0.0012221 -3.29513e-24)
(0.000804925 0.00148036 7.74442e-22)
(0.00068194 0.00104231 -1.86347e-21)
(0.000667004 0.0012148 2.02591e-23)
(0.000656127 0.00101729 2.69151e-21)
(0.000669624 0.00103947 9.32054e-22)
(0.000734504 0.0013683 1.12171e-21)
(0.000667118 0.00121544 -7.22428e-22)
(0.000572672 0.00104626 1.05401e-21)
(0.000594062 0.00108515 -2.07361e-21)
(0.000585002 0.00106857 1.0764e-21)
(0.000584149 0.001071 -2.15785e-21)
(0.000593673 0.00108815 -7.10912e-22)
(0.00057192 0.0010485 -7.03345e-22)
(0.000722933 0.0013584 -6.92571e-22)
(0.000617483 0.00110628 -8.30127e-22)
(0.000837781 0.0014074 -4.27967e-22)
(0.000341529 0.000739528 -9.84456e-22)
(0.000642719 0.001159 7.44088e-22)
(0.000217242 -0.000115564 0)
(0.000563614 0.0010425 0)
(0.000614936 0.00112953 6.81314e-22)
(0.000567018 0.00103472 -5.50361e-24)
(0.00079211 0.00143195 1.82825e-23)
(0.000718492 0.00126799 0)
(0.00064563 0.00117474 -7.24514e-22)
(0.000865839 0.000715112 2.28487e-21)
(0.00055093 0.00105427 1.38445e-21)
(0.00090474 0.000463482 1.50483e-21)
(0.000612724 0.00112 8.76128e-22)
(0.00071783 0.00127194 1.04347e-23)
(0.000391082 0.000638743 2.76855e-21)
(0.000695678 0.00125641 -3.00683e-22)
(0.000795129 0.00137942 -8.28271e-22)
(0.000387964 0.000740628 -4.46527e-22)
(0.000652832 0.0011621 -1.58608e-21)
(0.000357202 0.000531182 1.53263e-21)
(0.000643738 0.00115422 9.20434e-22)
(0.00071919 0.0012792 1.77839e-21)
(2.90869e-05 -5.32169e-07 0)
(0.000564993 0.00102896 1.20207e-21)
(0.000609119 0.00103791 1.11974e-21)
(0.000830591 0.000728726 -3.53938e-23)
(0.00077636 0.00146095 -1.23292e-21)
(0.000580701 0.00105621 -2.47159e-21)
(7.11868e-06 1.24413e-05 -4.818e-21)
(0.000754733 0.00136098 7.45714e-22)
(0.000671924 0.00120538 1.00369e-21)
(0.000639145 0.00117936 1.59916e-21)
(0.000650465 0.000994972 -9.13103e-22)
(0.000674007 0.0010328 -9.22965e-22)
(0.000663887 0.00101644 -9.32485e-22)
(0.000828949 0.001466 -4.81864e-22)
(2.29428e-05 5.3243e-05 -1.83281e-21)
(0.000590287 0.00107685 -1.29861e-21)
(0.000154386 0.000201377 3.63401e-22)
(0.000519948 0.00103676 -1.53003e-21)
(0.000387761 0.000711101 3.58316e-21)
(0.000501382 0.000161639 -5.38543e-21)
(0.000795723 0.00146039 1.19345e-21)
(0.000821986 0.00145311 0)
(0.000340204 0.000514429 -5.02815e-22)
(0.000638595 0.00116422 -1.79039e-21)
(0.000670546 0.00109278 2.26719e-21)
(0.000281021 0.000326204 7.28317e-22)
(0.000900588 0.00143061 -8.26003e-22)
(0.000607661 0.00103104 9.92568e-22)
(0.000814376 0.00148088 2.86679e-21)
(0.000374131 0.00069815 1.44831e-24)
(0.000496563 0.000830734 -1.38632e-21)
(0.000632963 0.00107778 -2.38074e-21)
(0.000702173 0.00128803 -5.43251e-24)
(0.000565444 0.00103185 0)
(0.000604522 0.00118167 -3.80731e-23)
(0.00051288 0.00101649 1.57118e-22)
(0.000524843 0.00103842 1.60703e-22)
(0.000534351 0.00105546 1.5939e-22)
(0.000679073 0.00131202 1.62521e-22)
(0.000830476 0.00129739 -6.91466e-22)
(0.000612737 0.00112021 5.59077e-24)
(0.000597639 0.00107481 0)
(0.000585262 0.00105228 -2.28047e-21)
(0.000555819 0.00107199 0)
(1.56754e-05 0.000689643 9.4258e-22)
(0.000665687 0.00121571 7.62445e-22)
(0.000567497 0.00103153 -6.65172e-22)
(0.000542012 0.000379622 -9.04683e-22)
(0.000688673 0.0012858 6.91767e-22)
(0.000612087 0.00111978 9.06136e-22)
(0.000324013 0.000475873 -1.8929e-21)
(0.000636214 0.00116113 -6.97704e-22)
(0.000670472 0.00121726 -1.78177e-21)
(0.000570867 0.00105226 3.49374e-21)
(0.000594196 0.00109175 3.52992e-21)
(0.000583809 0.00107468 1.41158e-21)
(0.00058103 0.00105345 -1.17445e-21)
(0.000593687 0.00107609 0)
(0.000686219 0.00129127 -2.14351e-21)
(0.000799681 0.0014288 1.11136e-21)
(0.000653482 0.0010599 -7.38597e-22)
(0.000750337 0.0013569 9.55123e-24)
(0.000535361 0.00103997 2.55108e-21)
(0.00067659 0.00119424 1.05134e-21)
(0.000578358 0.00106513 0)
(0.000599944 0.00110547 0)
(0.000590743 0.00108803 0)
(0.000523449 0.000912669 -1.19184e-21)
(0.000437555 0.000783152 -2.81637e-21)
(0.000762459 0.00122763 -4.87839e-22)
(0.000748657 0.00134459 5.82718e-22)
(0.000666325 0.00121559 8.04024e-22)
(0.000632557 0.000812193 -4.96681e-21)
(0.000558572 0.00105325 5.90557e-24)
(0.000579981 0.00109289 5.98679e-24)
(0.000570615 0.00107576 0)
(0.000789656 0.00146488 6.37592e-22)
(0.000660052 0.00114241 4.09404e-22)
(0.000571891 0.00104612 -1.14792e-21)
(0.000802933 0.00145614 -1.97258e-21)
(0.000635574 0.00137284 1.03013e-21)
(0.000784423 0.00145088 0)
(0.000620526 0.000985954 0)
(0.000610757 0.00112114 0)
(0.00046549 0.000781698 9.92122e-22)
(7.05896e-06 -1.73343e-05 -1.1677e-21)
(0.0005851 0.00107248 -6.46649e-22)
(0.000594642 0.00108965 0)
(0.000572843 0.00104996 0)
(0.000500772 0.000836278 0)
(0.000512926 0.000803113 -1.18364e-21)
(0.000643164 0.00115344 8.90084e-22)
(0.000550882 0.00104266 -1.45836e-21)
(0.000437847 0.000318744 1.49622e-21)
(0.000750219 0.00134797 1.58578e-21)
(0.000564493 0.00103474 -1.70388e-21)
(0.000623841 0.00111231 0)
(0.000558395 0.00104037 -7.18003e-22)
(8.87852e-06 -3.14091e-05 -9.48493e-22)
(0.000804497 0.00147544 0)
(0.000612784 0.00112238 -1.62326e-21)
(0.00070838 0.00128114 3.91467e-21)
(0.000649287 0.00116288 -7.18211e-22)
(0.000640643 0.00115837 -9.4092e-22)
(0.000330555 0.000688811 1.29397e-21)
(0.000376038 0.000529059 -2.07385e-21)
(0.000629647 0.000848242 -2.85867e-21)
(0.000798381 0.000289285 0)
(0.000782749 0.00121815 0)
(0.000644007 0.00115718 -9.00828e-22)
(0.000724606 0.00129678 -1.59587e-21)
(0.000563463 0.00058633 5.09597e-21)
(0.000764476 -1.52065e-05 3.32795e-24)
(0.000667481 0.0012139 6.21628e-22)
(7.28659e-05 0.000686335 1.28742e-21)
(1.90867e-05 -7.29504e-06 -5.76024e-21)
(0.000802926 -3.75967e-05 -1.29075e-21)
(0.000606021 0.00106145 6.39173e-22)
(0.000584154 0.0010228 6.32387e-22)
(0.000596546 0.00104472 6.45816e-22)
(0.000511711 0.00120536 0)
(0.00042518 0.000275708 4.59603e-22)
(0.00058203 0.000246781 -1.52949e-21)
(0.00089266 0.00137921 -3.90607e-22)
(0.000274633 0.000557815 3.34267e-21)
(2.23136e-05 -2.92168e-06 2.19174e-21)
(0.000566815 0.00103271 -7.23336e-22)
(0.000558837 0.00102936 8.4453e-22)
(0.00089716 0.000174241 0)
(0.000567209 0.00103999 -1.01144e-21)
(0.000618131 0.00112634 -5.11725e-22)
(0.000695233 0.00151556 8.10955e-22)
(0.000262663 0.000306388 6.66682e-22)
(0.000712919 0.00127176 0)
(3.1294e-05 -2.77829e-06 2.23184e-26)
(0.000709967 0.00129504 4.64878e-22)
(0.000661798 0.00136757 -6.95754e-22)
(0.000620596 0.00109179 7.4523e-24)
(0.000564992 0.000961681 1.45402e-22)
(0.000641856 0.00117064 -1.01869e-21)
(0.000935198 0.000168772 0)
(0.000565844 0.00103463 -2.50554e-23)
(0.000744156 0.00134898 5.35598e-22)
(0.000639873 0.00115108 1.69853e-21)
(0.000568794 0.00104839 7.88329e-24)
(0.000590382 0.00108804 7.95649e-24)
(0.000580932 0.00107089 7.36068e-22)
(0.000601813 0.00118149 -1.24911e-21)
(0.000749287 0.00135123 1.23075e-21)
(0.000819429 0.00147485 -2.8195e-21)
(0.000743748 0.00133431 -6.79507e-22)
(0.000665843 0.00121469 -1.24188e-21)
(0.000729106 0.000704062 5.1099e-22)
(0.00080689 0.00147379 5.35896e-22)
(0.00064934 0.000855026 -1.49128e-21)
(0.000572223 0.00104337 1.29207e-21)
(0.000699138 0.00127719 3.10829e-23)
(0.000798043 0.00146003 -2.44039e-21)
(0.000667685 0.00132007 -9.42264e-22)
(0.000665752 0.0012157 7.23344e-22)
(0.000269584 0.000394432 -1.95534e-21)
(0.000456368 0.000617306 2.44895e-21)
(0.000619835 0.00108224 -7.1855e-22)
(0.00057185 0.00104877 0)
(0.000593644 0.00108841 0)
(0.000584095 0.00107127 0)
(0.000718194 0.00135513 0)
(0.000645054 0.00113004 0)
(0.000584828 0.00105112 1.48206e-21)
(0.000606876 0.00109123 1.49795e-21)
(0.000597251 0.00107381 1.51351e-21)
(0.000610691 0.00111943 6.78936e-22)
(0.00053085 0.000343513 3.66386e-21)
(0.000712484 0.00125025 -2.89518e-23)
(0.000808052 0.00146423 0)
(2.68746e-05 -3.2313e-06 -2.14298e-21)
(0.00063374 0.0011621 6.48265e-22)
(0.000220785 0.000498671 3.38987e-21)
(0.000665943 0.00121495 -1.35161e-21)
(0.00079127 0.00145939 1.2125e-21)
(0.000557408 0.00099271 -1.27653e-21)
(0.000978664 0.000117918 1.7124e-21)
(0.000693671 0.00128565 1.96488e-21)
(0.000672232 0.00124807 0)
(0.000705466 0.00127275 -4.21969e-21)
(0.000705453 0.00128476 6.43109e-22)
(0.0006144 0.00111889 6.17912e-22)
(0.00061444 0.00111838 -7.32022e-22)
(0.000563345 0.00103196 0)
(0.000638128 0.00116098 -2.17692e-21)
(0.000637879 0.00116213 -6.36963e-22)
(4.07421e-05 -6.90945e-07 0)
(0.000639905 0.00111204 -1.75358e-21)
(0.000703264 0.00128504 6.02949e-22)
(3.85552e-05 4.02846e-05 2.6015e-21)
(0.000564771 0.00103025 0)
(0.000625841 0.00111416 5.13042e-22)
(0.000792314 0.00145924 -6.48633e-22)
(0.000771478 0.000725535 -4.2833e-22)
(0.000647405 0.00116174 -9.97113e-22)
(0.000765747 0.00135492 -8.59513e-22)
(0.000806276 0.0014309 -6.8092e-22)
(0.000683141 0.00128714 0)
(0.00070893 0.00128651 -2.15859e-23)
(0.000579049 0.000924562 -1.44505e-21)
(0.00114981 8.05308e-05 -2.23313e-21)
(2.87521e-05 3.74154e-05 2.44895e-21)
(0.000565375 0.00103146 1.11788e-23)
(0.000862156 0.00116048 7.8644e-21)
(0.000796729 0.00145348 6.45334e-22)
(0.000715547 0.00128617 -5.29568e-22)
(4.17032e-05 -1.64101e-07 3.65814e-21)
(0.000694465 0.00145421 0)
(0.000767456 0.000520289 3.71083e-21)
(0.000785279 0.00146284 0)
(0.000477674 0.00116358 2.93107e-22)
(0.000573537 0.00102156 1.13139e-21)
(0.000786799 2.37597e-05 -1.22086e-21)
(0.000672385 0.000968669 -4.83793e-22)
(0.00057372 0.00104102 1.26351e-21)
(0.000828154 0.000661824 -8.54317e-22)
(0.000610754 0.000856503 -1.44755e-21)
(0.000811522 0.0014505 5.46031e-22)
(0.000817826 0.00145161 0)
(0.000569705 0.00101327 1.21686e-21)
(0.000704586 0.00122359 -9.58433e-24)
(0.000652266 0.00142128 -2.81672e-21)
(0.000530493 0.000913316 -1.03696e-21)
(0.000126006 0.000137519 -2.22828e-21)
(0.000671318 0.00112507 8.48552e-22)
(0.00097277 0.000266469 5.30242e-22)
(0.000582981 0.000747734 9.74836e-22)
(0.00069718 0.000703595 -1.77016e-21)
(0.000706438 0.00133662 8.56592e-22)
(0.000434296 0.000279201 -5.04055e-25)
(0.000810525 0.00145022 -1.19785e-21)
(0.000592097 0.000810229 1.49478e-21)
(0.000704289 0.00117101 9.6624e-22)
(0.000418173 0.000754367 -1.18877e-21)
(4.26692e-05 -3.43325e-07 1.32543e-21)
(0.000299195 0.000345981 1.65047e-21)
(0.000541455 0.00104625 0)
(0.000336248 -0.000157943 -3.25533e-21)
(0.000754413 0.000795674 -3.55363e-21)
(0.00035753 0.000642917 0)
(0.000690914 -7.56068e-06 3.10215e-24)
(0.000277802 -0.000119613 -5.35959e-21)
(2.9208e-05 4.32302e-05 -2.34137e-21)
(0.000837834 0.000237683 -1.89673e-21)
(0.000394269 0.000497533 1.20899e-21)
(0.000787175 -1.22869e-05 -2.37639e-21)
(0.00095019 0.000806554 1.62415e-21)
(0.000298003 0.000824795 9.78888e-22)
(0.000440978 0.000188199 -3.25181e-22)
(0.000161778 0.000416807 0)
(0.000671628 0.00068054 -2.26934e-24)
(0.000591551 0.000934291 2.40946e-23)
(0.00047864 0.000190463 1.0745e-21)
(0.000614077 0.00108859 -2.75964e-22)
(0.00039032 0.000492868 -1.1998e-21)
(0.000121865 0.000145997 1.8008e-21)
(0.000593979 0.00120484 -1.66325e-21)
(0.000394419 0.000243554 0)
(0.000624678 0.000538817 0)
(1.33017e-05 0.000651316 4.20992e-22)
(0.000525207 0.000909832 -1.73655e-21)
(0.000363078 0.000488944 -1.0213e-21)
(0.000957304 0.000316443 2.09015e-21)
(0.00101389 0.00133442 6.90932e-22)
(0.00070233 0.00127608 -8.6603e-22)
(0.000321618 0.000229752 -1.77444e-21)
(0.000514505 0.000802594 0)
(0.000713367 -4.1354e-05 4.21723e-21)
(0.000680157 0.00119261 -1.8299e-21)
(0.000732415 0.0012657 7.12456e-23)
(0.000371877 0.000303599 0)
(0.00038862 0.000520083 1.14479e-21)
(0.000644005 0.00030077 3.70955e-25)
(0.000748371 0.00146266 2.36676e-21)
(0.000966244 0.000142413 2.0399e-21)
(0.000690693 0.00119237 0)
(0.000788444 0.00134276 2.75654e-23)
(0.000709364 0.00120867 -3.74399e-24)
(0.000609948 0.00103926 2.69131e-23)
(0.00063341 0.0010792 -5.86647e-23)
(0.000623203 0.0010617 2.75152e-23)
(0.000576138 0.00104597 -4.93668e-22)
(0.000598314 0.00108547 -4.98972e-22)
(0.000588587 0.00106839 -9.42065e-24)
(0.000362757 0.000770137 8.92758e-22)
(0.000668403 0.00121142 2.2225e-21)
(0.000485208 0.000976724 -1.40416e-23)
(0.000347791 0.000668137 1.73383e-21)
(0.000345389 0.00053578 5.3111e-22)
(0.000500675 0.000927624 0)
(0.000457336 0.000340871 1.60858e-21)
(0.000717858 0.00125628 -1.51969e-21)
(0.000388078 -5.25978e-05 2.26778e-25)
(0.000493604 0.000132641 0)
(0.000969618 4.63867e-05 2.54172e-21)
(0.000701553 0.00119243 0)
(0.000532038 0.00104486 -2.47993e-21)
(0.000910388 0.000177161 0)
(0.000620845 0.00119578 -1.05136e-21)
(0.000757364 2.2279e-05 -1.1696e-21)
(0.00105049 0.000684336 2.16106e-21)
(0.000531326 0.000135647 7.17244e-24)
(1.63689e-05 7.06164e-06 -2.24892e-21)
(0.000753534 0.00042069 2.03169e-21)
(0.000384891 0.000228572 0)
(0.00017766 -2.45847e-05 -2.96199e-21)
(0.000545644 0.000884645 3.10593e-22)
(0.000235858 0.000746964 0)
(4.29093e-05 1.03594e-06 -1.28161e-21)
(0.000449891 0.000636394 8.99547e-23)
(0.000959756 0.000547768 1.25127e-21)
(0.000712603 0.000217586 2.35505e-21)
(0.000528984 0.000685454 3.45691e-21)
(0.000812589 0.00147681 1.19117e-21)
(2.35218e-05 -6.58024e-06 2.36393e-21)
(0.00066114 0.0011667 1.08061e-21)
(0.000522681 0.000869775 0)
(4.45932e-05 0.000276748 -1.04418e-21)
(0.00061591 0.00111498 -1.06429e-21)
(0.000606507 0.00130349 -7.5444e-23)
(0.00058121 0.00126187 2.01284e-23)
(0.000678781 0.00143642 -7.61857e-23)
(0.000533414 0.0011674 -5.14726e-23)
(0.000757847 0.000950147 -5.89148e-21)
(0.000783174 0.00163089 0)
(0.00126745 0.000781064 6.66487e-22)
(0.000931215 0.000574233 1.10402e-21)
(0.000613121 0.00106535 0)
(4.16726e-05 2.08767e-06 -3.82998e-21)
(0.000662788 0.0012783 0)
(0.000490712 0.000667566 6.31466e-22)
(0.000917744 0.000523733 5.91276e-22)
(0.00063796 0.00115545 5.5695e-24)
(0.000793714 0.0013343 -3.39526e-21)
(0.000468416 0.000312612 0)
(0.000839357 0.00147093 -1.96396e-21)
(4.17166e-05 3.97991e-05 0)
(3.34152e-05 4.28568e-06 1.64219e-21)
(0.000570898 0.00103057 0)
(0.00074143 0.00120786 -1.1199e-21)
(0.00107994 0.000882962 -1.32082e-21)
(0.00113595 0.000917573 1.1757e-21)
(0.000692001 0.00120892 -2.54078e-21)
(0.000430987 0.000985665 -5.19804e-23)
(0.000559075 0.00123743 -5.72016e-23)
(0.000472459 0.00107296 7.04761e-23)
(0.000494683 0.00111219 -5.46254e-23)
(0.000653414 0.00142315 -7.41819e-23)
(0.00100486 0.00101281 2.53392e-21)
(0.000696834 0.00119329 0)
(0.000194874 0.000489323 0)
(0.000259818 0.00116727 1.48117e-21)
(0.000255895 0.000527353 -3.77605e-21)
(4.28064e-05 -7.16878e-05 0)
(0.000374541 0.000594408 0)
(0.000734941 0.00125648 -9.59997e-22)
(0.000822208 0.00147193 4.42662e-22)
(0.00077548 0.00139819 -1.3293e-21)
(0.000651129 0.00111358 -7.87904e-22)
(0.000384531 0.000879504 -4.67137e-24)
(0.000682974 0.00119022 9.11878e-24)
(0.000601919 0.000223001 -4.03145e-21)
(0.000858262 1.49292e-05 0)
(0.000746039 4.09403e-05 3.39395e-21)
(0.00011738 0.000334425 -1.08503e-21)
(0.000693339 0.00120048 4.03229e-22)
(0.000717614 4.51543e-05 0)
(0.000190541 1.43053e-05 1.36013e-21)
(0.000294266 0.000455194 -1.3332e-24)
(0.000689647 0.00118802 -4.34317e-22)
(0.000841123 -2.28421e-05 0)
(0.000440532 0.000409886 -3.49937e-21)
(0.000592374 0.00130894 0)
(0.000522679 0.00117301 0)
(0.000458229 0.00104307 0)
(0.000438551 0.00100295 0)
(0.000449348 0.00102532 0)
(0.000735436 0.000330913 8.04368e-22)
(8.73478e-05 0.00021084 -2.51669e-21)
(0.000300613 0.000263038 2.89533e-21)
(0.000718945 0.0015039 -7.19307e-23)
(0.000542851 0.00117929 -1.16175e-22)
(0.000555591 0.00120374 -1.1863e-22)
(0.000566052 0.00122249 -1.16987e-22)
(0.000640692 0.00136156 -1.19874e-22)
(0.000726419 0.00123647 3.46828e-21)
(0.000723012 0.00126335 0)
(0.000789581 0.000764554 1.88489e-21)
(0.000603592 0.00112413 1.12586e-21)
(0.000342712 0.00044907 1.79529e-21)
(0.000895651 0.000295402 1.36829e-21)
(0.00067764 0.00134345 1.20231e-21)
(0.000428368 0.000497509 -7.08107e-22)
(0.000393764 0.000642242 1.31502e-21)
(0.000681606 0.00119577 0)
(0.000981394 0.00084099 -2.2007e-21)
(0.000454219 0.000911864 -7.06078e-22)
(0.000422935 0.000816167 5.31105e-22)
(9.55125e-05 0.000524865 -1.02605e-21)
(0.000689248 0.00119753 8.01606e-22)
(0.000732753 0.000432407 -2.15622e-21)
(3.88494e-05 -1.54547e-07 1.56356e-21)
(0.00113256 2.00317e-05 0)
(0.000240142 0.000540233 2.60714e-24)
(0.000330309 0.000472765 1.07942e-21)
(0.000754035 0.000751381 -3.06994e-22)
(0.00164809 0.000428372 7.78846e-22)
(0.00014133 0.000739007 8.81548e-22)
(0.000465808 -6.26795e-05 0)
(0.000710625 0.000252663 0)
(7.3342e-05 -0.00011226 -4.39581e-22)
(0.00100113 0.000187102 2.29148e-21)
(3.97092e-05 4.07749e-06 1.33084e-25)
(0.000480055 0.000373898 -3.56646e-25)
(0.000825488 0.00146062 -7.71185e-22)
(0.000578429 0.00105929 3.66089e-21)
(0.000640793 0.00116179 0)
(0.000393337 0.000639003 0)
(0.000472155 0.000759566 -2.56314e-21)
(0.000545836 -0.000171511 2.64593e-21)
(0.000647963 0.00113793 -8.53145e-22)
(0.000723001 0.000722262 -6.0063e-22)
(0.000402008 0.000647844 1.28523e-21)
(0.00122664 6.93192e-05 -3.91561e-21)
(0.000780514 0.000780768 -2.69346e-24)
(3.86273e-05 -3.79115e-06 -1.558e-21)
(0.000443608 0.000750553 2.75075e-21)
(0.000584367 0.00107652 2.56399e-21)
(0.000884141 0.000195292 9.66393e-22)
(0.000870726 0.000286841 -1.26072e-21)
(0.00055685 0.000261369 3.28018e-21)
(0.000806733 0.0013477 3.65981e-22)
(0.00037688 0.000629797 0)
(0.000826082 0.000699376 -9.95818e-22)
(0.000702685 0.00128358 -3.67773e-21)
(0.000572592 0.00102142 -1.5106e-23)
(3.04529e-06 1.8493e-05 -1.65795e-21)
(0.000168096 0.000236205 -1.38596e-21)
(0.000494129 0.000718991 -7.00691e-21)
(1.06668e-05 8.10888e-06 0)
(0.000668021 0.00121337 5.73263e-22)
(0.000359151 0.000465161 1.96038e-21)
(0.000646903 0.00113284 2.5454e-21)
(0.000606176 0.00112985 -9.79998e-22)
(0.000976034 0.000773706 -5.34027e-21)
(0.000213152 -2.22312e-05 -1.0548e-25)
(0.00093799 0.000841928 7.42282e-24)
(0.000546595 0.000462618 -2.48011e-22)
(0.00068006 0.00122361 1.75655e-22)
(0.000820595 0.00146806 2.23434e-23)
(-7.35288e-05 0.00108612 -1.42015e-21)
(0.000837402 0.00148483 -1.10682e-21)
(0.000646069 0.00107925 -1.19721e-21)
(0.000538971 0.000937986 2.6726e-21)
(0.000675323 0.00120033 -4.11375e-22)
(0.00047092 0.000771433 0)
(0.000375843 0.000269021 -1.42874e-21)
(0.00150555 0.00131297 -9.58811e-22)
(0.000348032 0.000617883 0)
(0.000952149 0.000295954 0)
(0.000808803 0.000506164 4.93563e-21)
(1.47646e-05 -2.65221e-05 4.72654e-21)
(0.00067957 0.0011836 0)
(0.00069327 0.000589135 5.01873e-22)
(0.000650991 0.00106825 9.30977e-22)
(0.000660994 0.00108609 4.66265e-22)
(0.000637411 0.00104582 0)
(0.000774422 0.0014486 -9.17607e-23)
(0.000489773 0.000103166 -1.52604e-21)
(0.000152351 1.5607e-05 3.26518e-22)
(0.000705713 0.000584146 -1.96484e-21)
(1.72366e-05 -3.66027e-06 -4.75835e-21)
(0.000617025 0.00111818 -1.4021e-21)
(0.00052263 0.00101309 2.5827e-23)
(0.000661603 0.00125834 -8.12451e-23)
(0.000572523 0.00110672 3.87075e-23)
(0.000592281 0.00113654 -7.98114e-23)
(0.000891324 0.00137428 4.37233e-21)
(0.00122061 0.00130235 7.94579e-24)
(0.000710242 0.000664432 -1.88686e-24)
(0.000413513 0.000741823 -6.79071e-21)
(0.000522946 0.000398045 -1.33589e-24)
(0.000149669 0.00013758 4.68511e-21)
(0.000501328 0.000531521 -9.07838e-21)
(0.000115215 0.000523247 6.52253e-22)
(8.31632e-05 0.000195941 3.8632e-21)
(0.000442767 0.000830341 -6.83512e-25)
(0.000270274 3.60257e-05 -1.03313e-21)
(0.000609426 0.000265982 6.08439e-21)
(0.000494928 6.14769e-05 -1.01041e-24)
(0.000436187 0.000996389 8.10074e-22)
(6.39132e-05 0.00038216 -2.39313e-21)
(0.000584365 3.96442e-05 -7.28402e-24)
(0.00122893 0.000232371 -1.61688e-21)
(4.27533e-05 -1.54658e-06 -8.98201e-22)
(0.00088502 0.000212255 3.02256e-21)
(0.000708677 0.00102967 -1.40858e-21)
(0.000836445 0.00145877 5.61875e-22)
(0.00022589 0.000609201 -8.4807e-22)
(0.000582717 0.000432083 5.4077e-22)
(0.000658365 0.00127223 1.33615e-21)
(0.000608022 0.00112679 1.93105e-21)
(0.00069194 -0.000372894 0)
(0.000450013 0.00129805 -6.70553e-22)
(0.00105108 0.000910905 0)
(-0.000137895 0.00108463 1.22006e-21)
(0.000887629 0.000533713 1.07279e-21)
(0.000346501 0.000736023 0)
(0.000666313 0.00116779 0)
(0.000415067 0.000686569 0)
(0.000557772 0.00105939 5.03026e-21)
(0.000203534 0.000719564 -1.57854e-21)
(3.60889e-05 -3.66246e-06 -2.56686e-21)
(2.24968e-05 -9.9643e-06 2.25954e-21)
(0.000536043 0.000923009 3.10595e-21)