/*--------------------------------*- C++ -*----------------------------------*\
  =========                 |
  \\      /  F ield         | OpenFOAM: The Open Source CFD Toolbox
   \\    /   O peration     | Website:  https://openfoam.org
    \\  /    A nd           | Version:  8
     \\/     M anipulation  |
\*---------------------------------------------------------------------------*/
FoamFile
{
    version     2.0;
    format      ascii;
    class       volVectorField;
    location    "5";
    object      U;
}
// * * * * * * * * * * * * * * * * * * * * * * * * * * * * * * * * * * * * * //

dimensions      [0 1 -1 0 0 0 0];

internalField   nonuniform List<vector> 
5490
(
(0.000297835 0.00192887 1.12201e-21)
(0.000294147 0.00193715 1.79324e-21)
(0.000302039 0.00191706 -1.66074e-23)
(0.00029921 0.00192663 -1.156e-21)
(0.000321946 0.00202106 -1.23657e-22)
(0.000420428 0.000670572 -4.67092e-21)
(4.78654e-06 1.26789e-05 2.77086e-21)
(0.000239703 0.000222729 4.91968e-22)
(0.000318571 0.00194098 2.1965e-23)
(0.000431305 0.00017277 1.49913e-21)
(0.000302862 0.00194091 -3.92042e-22)
(0.000177868 0.00116192 0)
(0.000307688 0.00193213 -6.84567e-22)
(0.000340825 0.00169627 3.71704e-22)
(0.000312131 0.00194675 7.35956e-22)
(0.000491351 0.000153951 -7.23821e-21)
(-3.02234e-07 1.90432e-05 0)
(0.000108981 0.00065893 0)
(0.00025749 0.00168449 -1.21723e-21)
(0.000318538 0.00193075 -7.83263e-22)
(0.000135486 0.00115356 9.11298e-23)
(5.41726e-06 1.4782e-05 -1.39922e-21)
(0.000808154 0.000418069 0)
(1.47374e-06 1.51953e-05 0)
(0.000294711 0.00131504 5.35093e-22)
(0.000309855 0.0019354 1.12688e-21)
(0.000312177 0.00192661 1.44023e-21)
(0.000297243 0.00193727 0)
(0.000453448 0.000785833 2.82707e-21)
(0.000316127 0.00193003 0)
(0.000300901 0.00196389 -4.69292e-22)
(2.85713e-05 2.23877e-06 0)
(0.000171696 0.00182265 2.8438e-21)
(0.000388058 0.00199827 1.11164e-21)
(0.000304715 0.00191087 -9.59677e-23)
(0.000310716 0.00167417 1.43054e-22)
(0.000629483 0.000797729 2.18672e-21)
(0.000296932 0.00168729 2.97899e-22)
(0.000377626 0.00201343 1.02724e-22)
(0.000270538 0.00170158 4.87588e-22)
(0.000304945 0.00179072 5.22647e-22)
(0.000566025 0.000723945 1.05249e-21)
(0.000295695 0.00193185 -1.33018e-21)
(0.000567795 0.000831377 1.33978e-21)
(0.0011026 -6.29181e-05 3.12139e-21)
(0.000312677 0.00174983 -5.70638e-22)
(0.000314038 0.00193503 3.4682e-22)
(0.000379186 0.00201258 2.83052e-22)
(0.000326865 0.00178997 -7.65379e-23)
(0.000690962 0.00142002 -5.05356e-22)
(0.000428757 0.000274312 0)
(0.000321276 0.00192101 -2.093e-22)
(0.000306444 0.00188977 2.19838e-22)
(0.000315899 0.00194809 1.85145e-22)
(0.000306995 0.0019363 -1.20303e-21)
(0.000337229 0.00194808 3.66733e-22)
(0.00150956 8.16604e-05 -1.11494e-21)
(0.000954519 -1.46533e-05 -1.23712e-21)
(0.000344846 0.00201332 0)
(0.000358804 0.00201286 7.41256e-22)
(0.000444832 0.000825353 -1.08688e-21)
(0.000260305 0.00200367 1.31885e-22)
(0.000303245 0.00180259 0)
(0.000200539 0.000189667 -9.57938e-22)
(3.49725e-06 2.44408e-05 0)
(0.000419234 0.000389342 0)
(0.000506044 0.000152003 0)
(0.00138627 0.000279052 1.29075e-22)
(0.000321049 0.00176336 0)
(0.00101573 5.22617e-05 1.24712e-22)
(0.00030823 0.0019446 2.3361e-22)
(0.000360926 0.00200745 -3.5102e-22)
(4.82938e-05 0.000364612 4.79235e-22)
(0.000259516 0.000124125 -3.7179e-22)
(0.000375653 0.000278041 1.82247e-21)
(0.000334055 0.00177484 1.39759e-22)
(0.000671471 0.00056417 3.28403e-21)
(0.000315363 0.00186386 0)
(0.000270973 0.00169804 -7.28913e-22)
(0.000348008 0.00201298 -6.54698e-23)
(0.000534756 0.000574666 6.05154e-22)
(0.000621242 0.000251843 -1.87945e-21)
(0.00021411 0.000760756 2.20695e-21)
(0.000265403 0.00170095 1.18066e-21)
(0.000316794 0.00201788 -3.82138e-23)
(0.000318593 0.0017933 -4.26208e-23)
(-0.000519795 0.000411809 -4.68755e-22)
(0.000291686 0.000493525 1.34418e-21)
(0.000355364 0.00200759 -1.45297e-23)
(0.00067341 0.000873737 -1.5521e-21)
(0.000503362 -0.000201805 -1.95226e-21)
(0.000139926 0.000748923 -2.28588e-21)
(0.000380692 0.00199881 7.68309e-23)
(0.000919267 -3.74975e-05 -1.06367e-22)
(0.000273645 0.00144333 -1.28744e-21)
(0.00048934 9.46464e-05 1.92371e-21)
(0.000365689 0.00201066 4.55106e-22)
(0.000553298 0.000696467 7.04817e-22)
(0.00124875 0.000448663 4.86921e-21)
(0.000315337 0.0017828 6.26087e-22)
(0.000182866 0.00117974 -7.88593e-22)
(0.000296507 0.00168839 -5.4885e-22)
(0.000314108 0.00177358 1.12185e-21)
(0.000492101 6.91744e-05 4.02424e-25)
(0.000396124 0.0019957 0)
(0.000331251 0.00199567 2.94672e-24)
(0.000308507 0.0017641 -4.29886e-22)
(0.000240002 0.00098054 -1.17126e-21)
(0.000223735 0.000106859 5.72318e-22)
(3.08101e-05 2.74598e-06 3.32898e-21)
(0.000502057 -5.06485e-05 4.17228e-21)
(2.95642e-05 0.000309495 2.17862e-22)
(0.000755176 0.000194893 4.45077e-22)
(0.000292688 0.00176909 3.9473e-22)
(0.000362465 0.00200715 3.87177e-24)
(0.000751314 0.000787075 -1.04779e-21)
(0.000318881 0.0018725 0)
(0.000757765 0.000236137 9.69551e-22)
(0.000929906 0.000180841 -2.68911e-22)
(0.000358546 0.00201657 3.9772e-22)
(0.000337829 0.00199423 6.29485e-22)
(0.00114017 0.00177116 4.42455e-22)
(0.000372778 0.000767886 3.5934e-21)
(0.000262674 0.00169889 -1.29098e-21)
(0.000508902 -0.000320693 0)
(0.000327974 0.000335916 -2.44383e-21)
(0.000182117 0.00120479 3.54332e-22)
(0.000290453 0.0018821 1.68649e-22)
(0.000494066 -5.99614e-06 1.96562e-21)
(0.000335602 0.00170577 -3.20695e-22)
(0.00100734 -7.31749e-07 -2.4736e-22)
(0.000605459 0.000854801 2.42921e-21)
(0.000396669 0.00175564 3.88313e-22)
(0.000326264 0.0017774 1.23883e-22)
(0.000382917 0.00200895 -3.1285e-22)
(6.7207e-06 0.000263362 0)
(0.000982082 -2.19285e-05 0)
(3.34969e-05 0.000350909 2.47586e-22)
(0.000472438 0.000254416 -4.75177e-22)
(0.000303767 0.00171102 -4.67301e-22)
(0.000491033 -0.000101184 2.06734e-21)
(3.55442e-07 7.49689e-05 8.45868e-22)
(0.000359968 0.00200081 5.64959e-24)
(0.000373383 0.000958656 -1.36344e-21)
(1.73104e-05 -5.23158e-06 -1.45804e-21)
(0.00081808 -0.00014287 -4.59115e-21)
(0.000104331 0.00173264 -1.53785e-23)
(0.00077477 -0.000167359 0)
(0.000320947 0.00185362 9.21074e-23)
(0.00058401 0.000744554 -5.26966e-22)
(2.33691e-05 4.51021e-06 0)
(0.000192877 8.51613e-05 -3.31012e-26)
(0.000179065 0.00116311 4.13977e-22)
(3.24545e-06 0.000128946 0)
(0.00078909 0.000691318 2.9817e-21)
(6.69736e-06 3.50648e-05 -8.01386e-22)
(0.00018667 4.53999e-05 -2.33283e-22)
(0.000834462 0.000202143 -2.69864e-22)
(0.000888087 6.60311e-06 1.03432e-21)
(0.000336183 0.0017595 1.82622e-22)
(0.0003033 0.00167801 5.06014e-22)
(0.000669839 0.00107655 0)
(0.000339395 0.000964965 8.79341e-22)
(0.000277924 0.000408578 -1.80167e-24)
(0.000206578 0.000208355 2.47829e-25)
(0.000381214 0.000501932 0)
(3.78024e-05 -3.27017e-06 -1.23959e-22)
(0.000256362 0.00202081 6.89939e-23)
(0.000987769 0.000412968 -2.15324e-21)
(0.000306291 0.00184861 -1.74739e-23)
(0.000967439 -7.36026e-06 2.85779e-21)
(0.000366581 0.0020131 7.24649e-23)
(0.000279921 0.00165973 5.6577e-22)
(3.06477e-05 4.05442e-06 0)
(0.000363927 0.00201086 4.2089e-22)
(0.000329762 0.00202524 0)
(0.000337445 0.00198436 1.14174e-22)
(1.59204e-05 0.000118833 0)
(0.000348242 0.00199277 -2.08779e-22)
(0.000315368 0.00200746 0)
(0.00101875 6.47356e-05 -1.11055e-21)
(0.000162505 0.000189606 1.57411e-21)
(0.000309697 0.00199459 0)
(0.000298215 0.0016888 5.55135e-24)
(5.67628e-07 2.51324e-05 0)
(0.000259593 0.00169547 1.19694e-22)
(0.000292621 0.00168339 -3.53477e-22)
(0.000324348 0.00201955 1.18969e-22)
(0.000145624 1.66718e-05 -1.14661e-22)
(0.000444684 0.000210523 1.31181e-21)
(0.00115745 0.000276721 2.05293e-21)
(0.000202138 0.00114411 -4.32308e-22)
(0.00031371 0.0018779 -3.97318e-22)
(7.1843e-05 7.66801e-06 -1.63605e-21)
(0.000288691 0.000308384 0)
(0.000359597 0.00200441 4.5405e-22)
(0.000374018 0.00202064 1.83535e-22)
(1.04864e-05 5.25697e-05 0)
(0.000328525 0.000776163 3.24706e-21)
(0.000318329 0.00191838 1.09307e-22)
(6.38789e-05 -0.000227079 0)
(0.000333351 0.00175553 1.30079e-21)
(4.10187e-07 4.1751e-05 8.81329e-22)
(0.000500325 1.81889e-05 -1.85085e-21)
(0.000320052 0.00148907 -9.43713e-22)
(0.00094216 -2.25147e-05 5.05004e-22)
(7.67088e-05 -3.04773e-06 2.20336e-22)
(7.77322e-05 -0.000256945 9.26208e-22)
(0.000288022 0.00168666 0)
(0.00119017 0.000173608 2.74347e-22)
(0.000948819 3.88434e-05 0)
(2.74387e-05 0.000248915 2.61866e-22)
(0.000296476 0.00194556 5.05624e-22)
(0.000320707 0.00196218 8.20517e-22)
(0.00032447 0.00187386 1.82632e-21)
(0.000300341 0.00171765 -1.60207e-22)
(0.000336165 0.00177748 -5.65526e-22)
(0.000298662 0.00194044 4.0576e-22)
(0.00102243 1.09274e-05 -5.60513e-22)
(9.34924e-06 4.26156e-05 -5.78417e-23)
(0.000659352 0.000461754 -3.97037e-21)
(0.000146033 5.47503e-06 1.166e-22)
(0.000787438 0.00117209 -1.02031e-21)
(0.000315385 0.0019457 -2.61772e-22)
(0.000287678 0.00202531 -7.25307e-22)
(0.000343611 0.00200056 1.87901e-23)
(0.000294687 0.00169202 7.46239e-24)
(0.000301578 0.00177996 4.37183e-22)
(0.000311664 0.00194552 -2.31122e-22)
(2.26669e-05 0.000212927 -2.78183e-23)
(0.000176252 0.00121433 -1.5943e-23)
(0.000679464 0.000806806 0)
(3.11739e-05 1.36244e-06 1.67035e-21)
(0.000366089 0.000257795 1.30636e-21)
(0.000178941 0.00114238 7.17802e-22)
(0.00028961 0.00102076 -3.83749e-22)
(5.6517e-05 -0.000200383 0)
(0.000202582 4.96839e-05 9.32445e-22)
(1.99603e-05 0.000181567 0)
(0.000312883 0.00193145 0)
(1.12962e-05 5.80993e-05 -5.64032e-23)
(0.000316487 0.00179929 1.29431e-22)
(0.000208057 0.00205791 -8.80134e-24)
(0.000323272 0.00183868 5.54017e-22)
(1.77198e-05 0.000153989 -2.20753e-22)
(0.000633347 0.00048568 -2.5255e-21)
(0.000570358 0.000798388 2.01338e-25)
(0.000162878 0.00166111 3.83197e-21)
(0.000332645 0.000872776 6.28616e-21)
(0.000157226 0.000196039 1.72127e-21)
(7.99591e-06 4.34335e-05 -8.42208e-22)
(0.000190044 0.00161908 5.79611e-21)
(0.000998861 -2.43526e-05 0)
(0.000701584 0.000815058 0)
(0.000288723 0.00165624 1.12714e-22)
(0.000349455 0.00169017 -5.97533e-22)
(0.000383535 0.00174592 -1.14056e-23)
(0.000326802 0.00179034 0)
(0.000317047 0.00193165 -4.05175e-22)
(0.000304815 0.000360277 0)
(0.00129547 0.000356834 -1.76551e-21)
(0.000291364 0.00193458 -1.2002e-21)
(0.000223362 0.00127661 -1.83849e-21)
(0.00103947 -3.39816e-05 9.32893e-22)
(0.000134387 3.58778e-06 4.33271e-22)
(0.000829834 0.000493568 0)
(0.000395527 0.00201027 3.37158e-22)
(0.00120887 0.000574559 1.37054e-21)
(0.000171669 3.90184e-05 0)
(8.31716e-06 -6.20134e-05 4.49573e-22)
(6.86277e-05 -9.70861e-06 -4.61073e-22)
(0.000377619 0.00199524 6.14436e-22)
(7.43537e-05 1.13209e-05 4.95867e-26)
(0.00043041 -0.000513802 2.011e-21)
(0.000777928 0.00163192 7.60613e-22)
(0.000112418 8.60205e-06 -1.59548e-21)
(0.000255555 0.000160024 2.00044e-22)
(0.000323681 0.00169615 -5.78661e-23)
(0.000347895 0.00192946 -7.90769e-22)
(0.000381887 0.00205054 -3.49047e-22)
(6.435e-07 3.31935e-05 8.60153e-22)
(8.62705e-05 1.04737e-05 0)
(2.83979e-05 9.65803e-05 -1.15812e-22)
(0.000536566 0.00097179 2.70538e-21)
(0.000281217 0.00135041 -8.16185e-22)
(0.000101798 0.000340213 5.53381e-23)
(0.000391557 0.000900649 0)
(0.000278878 0.000106064 -6.90085e-22)
(9.60364e-05 0.00108225 1.26974e-22)
(0.000336795 0.00178926 -4.21986e-22)
(0.000268977 0.00175693 -1.03885e-22)
(0.000305237 0.000865819 -4.532e-21)
(0.000248998 0.000719795 -1.89504e-21)
(0.000192074 0.00131642 1.41263e-21)
(0.000264312 0.00132132 -7.15303e-22)
(0.00118226 6.89134e-05 0)
(0.000765984 -0.000241267 0)
(0.000232272 8.88987e-05 1.57176e-22)
(0.00028258 0.00162553 1.66754e-22)
(0.000105462 0.000858966 -3.88411e-21)
(0.000357066 0.00190785 6.13825e-22)
(3.18359e-05 -0.000200752 -4.51244e-22)
(0.000386089 0.00201283 0)
(0.000175587 0.000802429 2.76019e-21)
(0.000318 0.00177904 0)
(0.000310496 0.00176488 -5.24574e-23)
(0.00098685 -3.01713e-06 0)
(3.87304e-05 -0.000109671 -4.73785e-22)
(0.000299622 0.00178486 3.31418e-22)
(0.00032354 0.00176996 3.06631e-23)
(0.000263103 0.00132711 -5.69893e-22)
(0.000702361 0.000468891 3.98379e-21)
(0.000624139 0.00073272 4.54975e-22)
(0.000288052 0.00179933 2.74985e-22)
(0.000292239 0.0016892 0)
(0.00037416 0.00201563 -1.50131e-25)
(0.000235668 0.00154279 -1.59407e-24)
(0.00100903 5.9973e-05 1.12594e-21)
(0.000179429 0.00138263 2.21529e-21)
(-2.15829e-07 6.86719e-05 -8.52327e-22)
(2.9437e-05 0.000335823 0)
(0.000286979 0.00137876 6.61001e-24)
(0.000332374 0.00171149 1.37462e-22)
(0.000282541 0.000262786 -2.43373e-21)
(0.000847316 7.91348e-05 0)
(0.000371837 0.00192493 0)
(0.000292093 0.00182321 -5.36144e-23)
(0.000315321 0.00181262 1.38961e-22)
(0.000638702 0.000501967 -5.76159e-24)
(0.00026186 0.00135963 1.51581e-21)
(0.000279614 0.00175352 -5.08773e-22)
(3.46069e-05 -2.95357e-06 -1.46839e-21)
(3.66299e-05 -1.35879e-06 0)
(0.000924518 0.000743333 2.70129e-21)
(0.000266016 0.00137333 -1.34058e-21)
(0.000262637 0.00132716 -6.92064e-22)
(1.19729e-05 7.30073e-05 -1.03924e-21)
(0.000367609 0.00199693 2.37904e-23)
(-1.42544e-07 5.67804e-05 1.77031e-21)
(0.00091263 0.000145533 -4.54567e-22)
(0.000955 8.56421e-06 9.85543e-22)
(2.73422e-05 -7.79659e-05 -7.07807e-24)
(0.000278643 0.00180235 0)
(0.000166841 0.00116564 -1.30382e-21)
(0.000339987 0.00168541 -8.22744e-25)
(0.000314523 0.00199134 -1.10831e-22)
(0.000378461 0.001991 6.8096e-23)
(0.000219361 6.05879e-05 0)
(0.00031293 0.00166577 -6.18668e-22)
(0.000320136 0.00171268 0)
(2.4608e-06 0.000118285 0)
(0.000312439 0.00176822 3.92268e-22)
(0.000325468 0.00175975 1.14153e-22)
(0.000361857 0.00195059 2.66108e-22)
(0.000338701 0.00176197 0)
(3.10419e-05 6.54257e-07 -1.97802e-21)
(0.000251958 0.00134152 4.4076e-22)
(0.000337281 0.00177715 -3.39844e-22)
(0.00092661 -4.37372e-05 -2.51889e-21)
(0.000316071 0.00188286 1.03855e-21)
(0.000329598 0.00177811 -3.06638e-22)
(0.000384807 0.00201183 3.85419e-22)
(0.000898166 6.55266e-05 0)
(0.000264377 0.00133937 -1.80151e-22)
(0.000221159 0.00132971 -2.89636e-22)
(0.000318659 0.00201848 8.10818e-24)
(0.000284708 0.00176873 -1.56342e-22)
(0.000241831 0.00022345 -4.66925e-22)
(0.00086713 -6.00438e-05 -1.7029e-21)
(0.00028865 0.00204387 6.60558e-22)
(0.00019428 0.00133729 0)
(0.000346364 0.00200263 -5.27417e-22)
(0.000348772 0.00194742 1.5718e-22)
(3.96358e-05 -1.76934e-06 -9.28137e-27)
(0.000665364 0.00125817 -1.38835e-21)
(6.91124e-05 -3.19583e-06 2.24805e-22)
(3.1601e-05 8.19542e-05 2.87741e-22)
(0.000351214 0.001934 4.40968e-22)
(3.77151e-05 0.000398236 -1.39302e-21)
(0.000394593 0.000758015 -3.19927e-21)
(0.000338805 0.00177328 0)
(0.000220619 0.00113893 -2.46025e-22)
(0.000329161 0.001766 -3.30558e-21)
(0.000335738 0.00177211 -1.51573e-22)
(0.000151529 0.0016334 -3.24687e-23)
(0.000227977 0.001322 0)
(0.000323106 0.00181887 0)
(0.000356816 0.00201853 5.56638e-22)
(0.000258631 0.00135303 -6.06653e-22)
(3.31831e-05 -3.46056e-06 7.85447e-22)
(0.000329439 0.000917113 0)
(0.000355373 0.0019203 -2.71901e-22)
(0.000316402 0.000203081 2.19858e-21)
(0.000308313 0.00198193 6.07925e-23)
(0.000345925 0.00192692 -5.88875e-22)
(0.000339463 0.00200203 -2.91968e-22)
(0.00035885 0.00199851 5.37255e-24)
(0.000235276 0.000138723 7.3509e-22)
(0.000376576 0.00191972 1.12137e-22)
(0.000218729 0.001363 2.0776e-22)
(0.00100327 5.21417e-05 -9.99305e-22)
(-0.00014887 0.00129579 -1.27575e-21)
(0.000291506 0.00167949 -2.78634e-22)
(0.000258637 0.00065979 0)
(0.000353381 0.00193289 4.13029e-22)
(0.000199397 0.00010989 -2.12726e-22)
(2.73608e-05 0.000152338 -1.94431e-22)
(0.000174614 1.17714e-05 -3.03357e-23)
(2.27817e-05 -7.36467e-06 2.60541e-22)
(0.000379667 0.0020101 -2.3268e-22)
(0.000418817 0.00211775 1.69508e-22)
(3.12899e-05 0.000179909 2.25923e-22)
(0.000325414 0.00186763 -6.0786e-22)
(0.000623022 0.00146433 -8.28053e-22)
(0.000349335 0.00193201 0)
(0.000214621 0.00131749 5.75346e-24)
(0.000240617 0.00134937 2.30321e-24)
(3.57098e-05 0.000211179 2.81663e-22)
(1.10374e-05 6.60541e-05 8.7832e-22)
(0.000376206 0.00194775 4.92571e-22)
(0.000347597 0.00199854 0)
(0.00027228 0.00213572 -2.96628e-22)
(0.000467526 0.0017054 -1.31538e-22)
(0.000314851 0.00176648 3.36931e-22)
(0.000706257 0.000832226 -6.66528e-22)
(2.46009e-05 0.000566617 -9.34468e-23)
(0.000340306 0.00170055 0)
(4.17162e-05 -2.63941e-06 1.43923e-21)
(0.000318271 0.00170548 0)
(4.28695e-05 0.000249124 2.09104e-22)
(0.000348765 0.00192868 -4.13113e-22)
(0.00034532 0.00199987 -4.07466e-22)
(0.000360289 0.00201469 -4.39886e-22)
(0.000269523 0.00192035 3.0043e-23)
(0.000331075 0.000547686 1.84212e-21)
(9.41743e-05 1.24766e-05 3.58079e-24)
(2.64281e-05 -0.000178084 -1.76303e-24)
(0.000788828 0.000814352 -2.44943e-21)
(0.000219343 0.0013335 -7.90431e-23)
(0.000327313 0.00169249 1.91725e-22)
(0.000442222 0.00204615 -6.98467e-22)
(0.000342654 0.00192601 0)
(0.000264654 0.00133734 -1.16071e-22)
(0.000356296 0.00068735 0)
(0.000217851 0.00132583 -7.03794e-22)
(3.38988e-05 -9.79364e-05 4.5871e-22)
(0.000296732 0.00177429 0)
(4.08043e-05 -8.00883e-06 2.472e-22)
(0.000133667 0.00017609 5.25699e-22)
(0.00105593 0.000304522 -6.68207e-24)
(0.00034251 0.00192304 -1.25855e-21)
(0.000993918 0.000112149 2.74128e-21)
(0.000219025 0.00131639 2.15848e-22)
(0.000226425 0.00129424 -9.61251e-23)
(0.000349315 0.00200059 9.7482e-22)
(0.000358905 0.00200299 -4.48523e-22)
(9.91493e-06 0.000307309 0)
(3.34161e-05 2.46627e-06 -2.90439e-21)
(0.000281844 0.00181878 0)
(0.000349012 0.00193003 6.81705e-22)
(0.000350545 0.00192157 0)
(0.000185423 0.00116763 5.71799e-23)
(0.000307073 0.00177342 0)
(0.000286281 0.00178829 0)
(0.000266984 0.000552878 0)
(0.00030705 0.0017496 5.20157e-22)
(0.000307104 0.00167801 -1.32877e-22)
(0.00042396 0.000554241 -1.08831e-21)
(0.000252064 0.00150417 6.38544e-22)
(0.00104895 0.00146546 1.00307e-21)
(0.000301098 0.00175891 -6.90964e-22)
(0.000219452 0.00130335 1.02197e-21)
(0.000229337 0.00131529 -5.5584e-22)
(0.000313559 0.00176862 2.18837e-22)
(0.000119757 0.0018765 -1.56162e-23)
(0.000804015 0.000699228 -1.55458e-21)
(0.000964611 0.000394651 -1.24932e-21)
(0.000395273 0.00199913 0)
(0.000277739 0.00176017 3.43143e-22)
(2.80392e-05 -9.22477e-06 -3.63197e-22)
(0.000218673 0.000204139 6.51783e-22)
(0.000199179 0.00117657 -6.55533e-22)
(0.000341264 0.00192686 -1.46213e-21)
(0.000167713 0.00188714 2.01861e-23)
(0.000219674 0.00131489 -5.23261e-22)
(0.000294363 0.00175979 -1.16117e-24)
(0.000953861 -9.27451e-06 0)
(0.000316173 0.00198884 0)
(0.000593325 0.000666187 -1.17395e-21)
(0.000244118 0.00186993 0)
(0.000309933 0.00176455 0)
(0.00031722 0.00183683 1.39208e-22)
(0.000340144 0.00186784 6.22184e-22)
(0.000208068 -0.000125782 5.07521e-22)
(0.000192356 0.000755985 -1.29203e-21)
(3.17484e-05 -1.3322e-05 0)
(1.78334e-05 -7.01662e-05 9.03721e-22)
(2.74771e-05 5.10239e-06 0)
(0.000298399 0.00176824 6.79199e-23)
(0.000287842 0.00175747 -3.73803e-23)
(0.000270804 0.00170196 -2.46328e-22)
(0.000320539 0.00176418 6.56216e-23)
(0.000178743 7.68622e-05 -2.12284e-22)
(7.50468e-06 0.000243894 1.32347e-22)
(0.000599047 0.000327617 -2.71909e-21)
(0.000198976 0.00133877 1.17703e-21)
(0.000308008 0.00182562 0)
(0.000337257 0.00170383 -5.73662e-22)
(0.000423826 0.00108992 7.69203e-23)
(0.00054056 0.000727803 3.12133e-22)
(0.000149912 0.000579865 1.14867e-21)
(0.000999752 0.000687794 1.02176e-21)
(2.11183e-05 -5.68787e-06 -2.53093e-22)
(1.01361e-05 -3.25833e-05 0)
(4.01374e-05 -1.88669e-05 -3.74808e-22)
(2.17925e-05 3.86613e-06 -1.44879e-21)
(0.000162144 0.000354757 4.93176e-22)
(0.000231097 0.00115128 -3.36978e-22)
(0.000300499 0.00179021 9.07231e-22)
(0.000375115 0.00052712 5.09932e-22)
(9.32735e-05 0.000730795 1.11995e-21)
(0.000132711 0.000213426 1.2728e-21)
(0.000955794 0.000766326 -1.59685e-21)
(0.000705884 0.000888331 3.69372e-21)
(0.00021778 7.70443e-05 0)
(0.00024576 0.000232274 -1.91431e-21)
(0.000289357 0.00176121 -1.50554e-24)
(0.000336718 0.000591302 -1.5182e-21)
(0.000187417 -0.000118801 -7.03296e-22)
(0.000338158 0.00197945 2.45504e-23)
(7.5509e-06 3.8498e-05 1.7971e-21)
(0.000330053 0.00177146 -3.76844e-23)
(0.000960663 1.60759e-06 -6.1777e-23)
(0.000945454 -6.23332e-06 -9.96821e-22)
(0.000212125 0.0013585 -9.6055e-22)
(-5.32528e-05 0.00120737 4.75662e-23)
(3.67128e-05 3.60096e-07 0)
(0.000270645 0.000875964 2.11738e-24)
(5.45834e-06 0.000209671 1.09432e-22)
(0.000175367 0.00123861 0)
(0.000643767 0.000241328 1.92221e-21)
(0.000396704 0.000886728 6.24904e-24)
(0.000250356 0.000424376 4.01347e-21)
(0.000485898 0.00127509 -1.68113e-21)
(4.01492e-05 -2.24261e-05 2.44984e-22)
(0.000144612 -9.84351e-05 -2.32449e-21)
(0.000486023 0.000875045 2.39353e-21)
(0.000381091 0.000955077 0)
(0.000629874 0.000346218 0)
(0.000113919 0.00016575 9.78442e-22)
(0.000340651 0.00177469 1.47353e-22)
(0.000328928 0.00164915 -1.77217e-21)
(0.00035543 0.00202133 0)
(0.000401686 0.000420307 2.94891e-21)
(0.000117626 0.000272996 0)
(0.000254448 0.00166989 0)
(0.00107693 0.000243785 -1.11781e-21)
(0.000157978 -0.000107175 1.46143e-21)
(0.000323358 0.00184778 0)
(2.2135e-05 -1.34462e-05 0)
(1.214e-06 9.86756e-05 0)
(3.52975e-05 -1.45768e-05 5.42843e-23)
(0.000208509 9.71331e-05 -6.04692e-22)
(0.000863011 8.36608e-05 -1.04347e-21)
(0.000931511 0.00101573 2.4502e-23)
(0.000301742 0.00170817 -2.89968e-23)
(0.000350337 0.00055226 -7.03841e-22)
(0.000277819 0.00173431 -9.24813e-22)
(0.000334078 0.00198825 7.73064e-23)
(0.000991498 7.50049e-05 -4.65878e-22)
(0.000266575 0.00180073 0)
(0.0011856 0.000714985 4.76389e-22)
(1.47065e-05 3.89086e-06 3.91419e-22)
(0.000201546 0.000419731 -1.04556e-21)
(0.000127744 0.000185991 3.83029e-25)
(4.79854e-06 0.000179435 -2.22528e-22)
(0.000877349 0.000373752 2.75799e-21)
(0.000192009 0.00130301 7.04089e-24)
(0.000929324 0.00133761 0)
(0.000312973 0.00183448 -1.78871e-22)
(2.87667e-05 6.80054e-06 0)
(0.00133703 6.74093e-05 0)
(0.0004282 0.000903822 -2.736e-21)
(0.0002281 0.00115616 1.32723e-22)
(0.000309681 0.00177955 2.06209e-21)
(0.000360574 0.001761 -1.36291e-22)
(0.000974943 0.000377876 -2.02291e-21)
(3.68159e-05 -2.11007e-05 -1.64522e-22)
(4.37127e-05 -0.000122716 4.614e-22)
(3.84863e-05 -9.25456e-06 3.25485e-22)
(0.0011656 0.000135243 4.59594e-21)
(0.000663941 0.000279229 0)
(0.000158873 2.09051e-05 9.64522e-22)
(0.000803142 9.37614e-06 8.84101e-22)
(4.0208e-05 -1.50572e-05 -6.62948e-26)
(0.000481599 -0.000109357 -1.68983e-21)
(0.00096364 0.000121434 -6.80048e-22)
(1.36547e-05 9.8323e-05 0)
(0.000521976 6.10583e-05 -1.91096e-21)
(3.0535e-05 -8.74227e-05 0)
(0.0003485 0.00200915 -1.09321e-23)
(0.000302092 0.00175439 4.7022e-22)
(0.000102241 -0.000526002 2.5614e-21)
(4.23293e-06 0.000152582 0)
(0.000186712 0.001114 -7.14087e-22)
(0.000307865 0.00185756 -1.10055e-22)
(0.000317315 0.00177385 -2.16598e-22)
(0.000936332 0.000237074 -1.04772e-22)
(0.000331387 0.00168641 6.97306e-23)
(0.000164225 0.00112179 -2.512e-21)
(2.1691e-05 -1.73197e-05 -1.50704e-21)
(0.000115495 -8.55954e-05 9.52159e-22)
(0.0013422 0.00032861 -5.6779e-22)
(0.000337557 0.0016806 2.18041e-22)
(0.000351852 0.00199628 9.72164e-22)
(0.00031869 0.0017678 5.87539e-23)
(0.000968759 0.00011795 1.33077e-21)
(0.000655048 0.000815347 -1.95708e-21)
(2.93165e-05 2.32885e-06 8.29227e-22)
(0.000430888 0.00194357 1.39242e-21)
(0.000988221 -4.17032e-05 6.18192e-22)
(0.000335489 0.0017754 -6.32006e-23)
(0.000288143 0.00176715 6.0958e-23)
(0.00035491 0.00201896 -1.40912e-23)
(0.000179177 0.00177477 -2.84866e-24)
(3.28986e-05 1.18583e-06 1.66664e-21)
(2.43786e-05 -6.94437e-05 7.12604e-24)
(0.000310619 0.00167269 -4.20503e-22)
(0.00102174 0.00022282 0)
(0.00130327 0.00052598 6.01548e-22)
(1.01043e-05 -9.40313e-06 -2.84089e-22)
(0.000315657 0.000800414 -2.76421e-21)
(0.000963481 0.000119981 -2.61919e-21)
(0.000178247 0.00156318 6.25019e-21)
(0.000745646 0.00074983 1.3438e-21)
(0.000341027 0.00200174 -5.68571e-22)
(0.000262377 0.00175449 -7.65845e-24)
(0.0002902 0.00175995 0)
(0.000349376 0.000866399 8.90935e-22)
(0.00100715 1.49815e-05 0)
(0.000983533 5.70691e-06 -4.64193e-22)
(0.000400503 0.000865846 2.19764e-21)
(8.67355e-05 1.7177e-05 0)
(0.000106122 0.000234387 -3.0484e-22)
(0.000436438 0.000716967 -2.09618e-21)
(0.000300052 0.00176241 -2.35869e-23)
(0.000334791 0.00176446 -9.34853e-24)
(0.00101677 -1.09568e-05 0)
(0.000753717 0.00045052 -1.16242e-21)
(0.000356155 0.00200035 5.57194e-22)
(5.89585e-05 0.00183324 -1.72878e-21)
(0.00115326 0.000101029 1.93189e-21)
(0.000302761 0.00177719 -2.32018e-21)
(-7.73449e-08 9.0493e-05 0)
(0.000977043 4.61103e-05 9.13253e-22)
(0.00026953 0.000641445 -5.16405e-22)
(0.00013183 3.54875e-05 -1.85992e-21)
(0.00108475 7.98864e-05 0)
(0.000378842 0.000926363 -2.36181e-21)
(0.000231871 0.000970767 1.45638e-21)
(0.00037123 0.000863985 9.98435e-22)
(0.000496208 0.00215801 0)
(0.000463968 0.00102893 0)
(4.30139e-05 -2.59434e-05 -2.99557e-22)
(0.000194217 0.00129047 -4.29634e-23)
(0.000985889 -2.46213e-05 9.2637e-22)
(0.000283778 0.00178004 4.35341e-22)
(0.000555814 0.00165677 -1.059e-21)
(0.000275598 0.000831078 9.29784e-22)
(0.000606643 0.000348774 3.11742e-21)
(1.60526e-05 -6.23336e-05 -1.79929e-21)
(0.0010322 -6.01789e-07 -5.5891e-22)
(6.02503e-05 0.000737221 0)
(0.000215398 0.000426721 -2.03246e-21)
(0.000613662 7.51635e-05 1.68668e-21)
(0.000308157 0.000907665 -3.3376e-21)
(0.000167734 0.00062094 -6.94018e-22)
(0.000354484 0.0020217 1.59833e-22)
(0.000562763 0.000651295 0)
(0.00107582 0.000657192 -1.51528e-21)
(0.000130838 -9.43052e-05 -9.98614e-22)
(8.29372e-05 0.000905947 -3.77681e-22)
(0.000303412 0.00177453 0)
(0.000333914 0.001984 0)
(0.000840165 0.00222851 -7.48707e-23)
(0.000987348 -4.81166e-05 0)
(2.2953e-05 -9.71398e-06 0)
(0.000140736 0.000386578 -8.32359e-22)
(0.000173002 2.5158e-05 -9.5485e-22)
(0.000265224 0.00169925 -2.91542e-24)
(0.00033193 0.000853779 1.78633e-21)
(0.000143312 4.03566e-05 9.2026e-22)
(0.000354976 0.00192729 -1.72456e-22)
(0.000392481 0.00207744 -1.73546e-22)
(0.000765913 8.78828e-05 3.23432e-22)
(0.000417491 -0.00010761 -2.08706e-22)
(0.000297063 0.000926727 7.74029e-22)
(3.40956e-05 4.00612e-06 -1.67755e-21)
(0.000438546 0.00193621 -3.40417e-22)
(0.000364594 0.00097777 4.46093e-22)
(0.000394087 0.00087029 -1.12627e-21)
(0.000333722 0.00179216 7.21606e-23)
(0.000395012 0.00187656 7.68307e-22)
(0.000509798 0.000906929 -4.13924e-21)
(0.000353634 0.00200091 -2.0437e-21)
(0.000116659 -2.33274e-05 0)
(0.000933662 0.000431238 1.27062e-21)
(0.000372964 0.000917265 1.95654e-21)
(0.000718468 0.000799504 2.00819e-21)
(0.000306685 0.00175587 1.67416e-21)
(0.000498942 0.000729925 5.29914e-22)
(0.000713983 0.00081037 1.32597e-21)
(0.00059821 0.000638605 1.00842e-21)
(0.000981725 -6.13323e-05 -1.05922e-22)
(0.000101087 0.000235787 1.71678e-22)
(9.18972e-05 -7.04572e-05 -1.7737e-21)
(3.40326e-05 3.91217e-06 1.62897e-21)
(0.000257053 0.0017803 6.63927e-22)
(0.000416615 0.00197149 -1.36407e-21)
(0.00103385 0.000842302 3.64049e-21)
(0.000418739 -0.000259835 -2.97604e-22)
(0.000232861 0.00171981 9.35255e-22)
(0.000290833 0.0017651 -5.87193e-22)
(0.000440499 0.000355419 -2.5305e-21)
(0.000346023 0.001777 1.30799e-24)
(4.61455e-05 0.000655021 0)
(3.25066e-05 4.25561e-06 -1.31775e-21)
(0.000349938 0.00167729 1.30379e-21)
(0.000374782 0.00203488 -1.82043e-22)
(0.000511526 0.00222272 0)
(1.09658e-05 -3.75209e-05 2.84137e-23)
(0.000437818 0.000936531 7.68669e-22)
(0.000348975 0.00105216 1.41911e-21)
(0.000716842 0.00082896 0)
(0.00070375 0.000754528 1.97989e-21)
(2.29685e-05 -1.96871e-05 3.36336e-22)
(0.000911002 0.000382348 0)
(0.000666923 0.00079653 -1.84741e-21)
(0.000326036 0.00177912 0)
(3.90104e-05 9.95654e-06 -1.11016e-21)
(0.000557209 0.000873164 -2.83987e-21)
(0.000390428 -0.000798129 0)
(0.000349612 0.0019259 -5.60621e-22)
(2.34805e-05 0.00146093 -1.47811e-21)
(0.00034046 0.00166971 -7.53408e-22)
(5.24493e-05 -0.000294846 1.42075e-21)
(0.000415979 0.000844665 3.27249e-25)
(3.18687e-05 6.94603e-06 0)
(0.00067631 0.000855643 -2.87965e-21)
(0.00101212 -1.98367e-05 1.02289e-21)
(0.000601259 0.000472366 -1.42978e-21)
(0.000299711 0.00173532 5.90859e-23)
(0.000622969 0.000444956 2.57953e-21)
(0.000577587 0.000101167 6.32003e-22)
(0.000154208 0.000417538 -2.78847e-21)
(0.000317647 0.00178369 5.52323e-22)
(0.0010173 0.000248457 -1.90901e-21)
(3.84358e-05 7.4132e-06 1.90533e-21)
(0.000694604 0.000864802 0)
(0.000380504 0.000938401 1.12025e-21)
(0.000716658 0.000597838 -1.02252e-21)
(2.62571e-05 -9.62408e-06 0)
(0.000263775 0.00175061 -1.59648e-21)
(7.13854e-05 -7.86916e-06 5.86286e-22)
(0.000290079 0.00168742 1.0251e-25)
(2.62671e-05 1.00727e-05 1.7524e-21)
(0.000758057 -0.000116074 1.45528e-21)
(0.000392145 0.00189172 -2.13855e-21)
(0.000286718 0.0017584 3.52018e-22)
(0.000288985 0.00176375 -2.03467e-22)
(0.000991165 2.59434e-05 -3.70955e-21)
(0.000380701 0.00199996 9.92302e-22)
(0.000282155 0.000743466 -1.34423e-21)
(0.000580095 0.00209933 6.25323e-22)
(0.00040835 0.000644266 2.38835e-21)
(0.000821786 0.000674917 -1.29995e-21)
(0.000551798 0.000342665 -1.26559e-21)
(0.00028824 0.00176345 -1.33648e-22)
(0.000262461 0.000754722 3.50295e-21)
(0.000157641 3.36206e-05 -2.88514e-23)
(0.000307757 0.00176302 5.13349e-22)
(1.9004e-05 0.000555341 5.25253e-23)
(0.000382484 0.00155988 4.94963e-21)
(0.00123233 0.000140272 -3.03378e-21)
(0.000831752 0.00227808 -5.68053e-22)
(0.000147886 0.00186757 8.0544e-22)
(0.00140389 5.49255e-05 0)
(3.85451e-05 6.09074e-06 2.56861e-21)
(9.55561e-06 -2.80959e-05 -6.74425e-22)
(0.000103217 0.000685556 -8.08835e-22)
(0.000232355 0.000619484 1.25161e-21)
(0.00054942 0.000369092 -2.01468e-21)
(0.000294003 0.00176668 9.61748e-24)
(0.000358939 0.00201314 0)
(0.000694073 0.000815752 -1.99102e-24)
(0.00054766 0.00068023 -5.68571e-22)
(0.000383203 0.00201018 5.92807e-22)
(3.06924e-05 0.000640294 1.30742e-21)
(9.42418e-06 -2.40874e-05 4.43507e-22)
(0.000569825 0.000305937 3.0972e-21)
(0.000333398 0.00197735 0)
(0.000678766 0.000664953 1.50081e-21)
(0.000130804 0.000754069 -2.60374e-21)
(0.000350073 0.00229779 1.15199e-21)
(0.000358249 0.000526357 1.02388e-21)
(2.37194e-05 -2.57853e-05 -3.38176e-22)
(5.62216e-05 4.00338e-05 4.57949e-22)
(0.000550232 0.000635493 -1.98885e-21)
(0.000129496 0.00119988 -2.61481e-21)
(0.000769814 7.33797e-05 -1.93914e-22)
(0.000259565 0.00058798 -2.1429e-21)
(0.000364632 -0.000259414 0)
(0.000332698 0.00187853 -7.45336e-22)
(0.000777657 7.47484e-05 3.44419e-23)
(0.000358836 0.0017337 1.80852e-22)