/*--------------------------------*- C++ -*----------------------------------*\
  =========                 |
  \\      /  F ield         | OpenFOAM: The Open Source CFD Toolbox
   \\    /   O peration     | Website:  https://openfoam.org
    \\  /    A nd           | Version:  8
     \\/     M anipulation  |
\*---------------------------------------------------------------------------*/
FoamFile
{
    version     2.0;
    format      ascii;
    class       volVectorField;
    location    "5";
    object      U;
}
// * * * * * * * * * * * * * * * * * * * * * * * * * * * * * * * * * * * * * //

dimensions      [0 1 -1 0 0 0 0];

internalField   nonuniform List<vector> 
4280
(
(3.23037e-05 1.53492e-05 -7.96977e-23)
(0.000648664 0.00110298 2.7126e-22)
(1.83129e-05 3.19909e-05 -1.15216e-21)
(0.000309063 0.000400896 -7.9107e-22)
(0.000557927 0.000967899 4.24187e-22)
(0.000567616 0.00103281 0)
(0.000574308 0.000937255 0)
(0.000644955 0.0011025 2.41276e-22)
(0.000364398 0.000645933 -5.13762e-22)
(0.000566174 0.00106215 1.53363e-22)
(3.94243e-05 9.2735e-08 5.11963e-24)
(0.00064884 0.00122428 -3.98541e-22)
(3.63992e-05 8.28099e-05 -1.18081e-21)
(0.000589255 0.000457227 -1.51756e-21)
(0.000381152 0.000671199 -4.22168e-22)
(0.000649018 0.00111173 -2.30422e-22)
(0.000472027 0.000856487 5.05988e-22)
(0.000318229 0.00102354 -7.23424e-22)
(0.000187439 0.000763193 1.86058e-22)
(0.000644092 0.0011033 0)
(3.57676e-05 -2.53377e-06 -4.26006e-25)
(0.0006679 0.00122192 0)
(4.36381e-05 -6.90736e-05 6.53604e-22)
(0.000725297 0.00127815 0)
(0.00058718 0.00104807 -6.52467e-22)
(0.000522357 0.000887382 -1.00086e-22)
(0.000672894 0.00121963 0)
(0.000579309 0.00103022 -4.01716e-22)
(0.000597119 0.00104039 -2.98756e-22)
(0.000447683 0.000949577 3.43319e-22)
(0.000566957 0.000966382 -8.78151e-22)
(0.000442436 0.00109109 0)
(0.000517107 0.000935667 -5.33391e-22)
(0.000500531 0.000917385 -1.03573e-21)
(3.45407e-05 0.000318987 9.37806e-22)
(0.000575539 0.00103889 6.95695e-22)
(0.000749216 0.00126336 -1.54585e-23)
(0.000441209 0.000841787 7.42609e-22)
(0.000684807 0.00127904 -1.72925e-22)
(0.000583979 0.00102723 6.49431e-24)
(0.000670201 0.000590248 2.74618e-22)
(0.000630935 0.00126019 -5.26388e-22)
(0.000565968 0.000798525 0)
(0.00058085 0.000914549 0)
(0.000512094 0.00095427 -2.04179e-22)
(0.000517516 0.000948339 0)
(0.000912907 0.00112295 -2.14611e-22)
(0.000630983 0.00112232 -2.41838e-22)
(0.000548644 0.000951909 1.03804e-23)
(0.000881399 0.00144542 4.46803e-22)
(0.000448889 0.000802408 0)
(0.000649311 0.00110905 0)
(0.000572864 0.0010088 -2.95025e-22)
(8.7159e-05 0.000682785 -8.88715e-22)
(0.000166888 0.000616681 -3.77338e-22)
(0.000648672 0.00111078 2.19211e-22)
(9.38725e-05 -0.000426904 -2.92101e-22)
(0.000708015 0.00126997 -4.74632e-22)
(0.000533877 0.000919903 -6.85417e-24)
(0.000631523 0.00112263 2.38988e-22)
(0.000582944 0.00102144 5.627e-24)
(0.000630702 0.00111524 3.72512e-22)
(0.000678898 0.00118879 1.02258e-21)
(0.000572841 0.00103387 -1.01089e-21)
(0.000575447 0.00101557 8.54595e-22)
(0.000689337 0.00121689 0)
(0.000804853 0.000821134 0)
(0.0001733 0.000590869 -5.36884e-22)
(0.000581513 0.00102671 -2.11291e-22)
(0.000635031 0.00111981 -2.22107e-22)
(0.000537999 0.000928974 -1.34741e-22)
(0.000599732 0.00105322 -3.04049e-22)
(0.0007434 0.00126401 -2.9006e-22)
(0.000716317 0.00125851 5.3248e-22)
(0.000836769 0.000448695 3.6173e-25)
(0.000192913 0.000736323 -9.9074e-22)
(0.00040369 0.00072435 0)
(0.000527618 0.000941053 0)
(0.000647153 0.00110458 6.77512e-24)
(0.000213565 0.00083571 -2.6378e-22)
(0.00054352 0.00105122 6.22575e-23)
(0.000684761 0.00121965 7.11609e-23)
(0.000359143 3.67741e-05 -1.97528e-21)
(0.000555545 0.000969383 -5.8472e-24)
(0.000554142 0.000971633 8.81627e-22)
(0.000909764 0.000841131 -1.0229e-21)
(0.000662524 0.00123463 1.68308e-22)
(0.00052056 0.000898172 1.26799e-22)
(0.00022674 0.000872717 -5.03287e-22)
(0.000288465 0.000932242 0)
(0.000695929 0.00122021 3.10601e-22)
(0.000322722 0.000989285 1.74372e-21)
(0.000455948 0.00091085 2.04294e-23)
(0.000519717 0.000909892 -1.98793e-22)
(0.00050968 0.000917226 0)
(0.000545448 0.000907538 3.85774e-22)
(0.000791055 0.00136766 0)
(0.000581764 0.00102557 -2.31223e-22)
(0.000689111 0.00114405 4.70756e-24)
(0.000536765 0.000925039 -8.93835e-22)
(0.000583297 0.00102259 -5.39811e-22)
(0.00065072 0.00124932 7.9165e-24)
(0.000724526 0.00129221 0)
(0.000539245 0.000929478 -3.63733e-22)
(0.000633516 0.0011211 2.17079e-22)
(0.000580925 0.00102162 -5.64903e-24)
(0.000542597 0.000953223 -5.47199e-22)
(0.000633184 0.0011223 -9.59189e-22)
(0.000399952 0.000693494 0)
(0.000382377 0.000694752 0)
(0.000281772 0.000737313 6.0655e-22)
(0.000544346 0.000954289 6.14247e-22)
(0.000554273 0.000969827 -8.88394e-22)
(0.000489746 0.000802812 -6.13452e-22)
(4.35827e-05 -2.406e-06 -5.16969e-24)
(0.000539693 0.000922391 0)
(9.34338e-05 -0.000202552 -1.25295e-21)
(0.000543908 0.000976615 0)
(0.000550833 0.000723514 7.12568e-22)
(0.000561859 0.000435477 0)
(0.000410079 0.000902712 -3.4255e-22)
(0.000521994 0.000928409 1.6061e-22)
(0.000724643 0.00127849 3.85823e-22)
(0.000542334 0.000924679 3.23191e-22)
(0.000525522 0.000941356 0)
(0.00047146 0.00098233 4.95785e-22)
(0.000378441 0.000695345 0)
(0.000512088 0.000965345 -2.52119e-22)
(2.36953e-05 0.000235042 1.62859e-22)
(0.000801046 0.00138482 -4.37903e-23)
(0.000308534 0.000562009 -4.33138e-22)
(0.000625068 0.00111474 2.65094e-22)
(0.000615037 0.00112296 1.56598e-22)
(0.000597747 0.00102724 -3.52458e-22)
(0.000536047 0.00096591 1.2683e-21)
(0.000146998 0.00117065 0)
(0.000728818 0.00128504 0)
(0.000809669 0.00136192 8.36327e-25)
(0.000309806 0.0005525 -2.37657e-22)
(0.000695801 0.00122162 -6.17321e-24)
(0.000547385 0.000957053 -9.37458e-24)
(0.000494215 0.000886981 0)
(0.00025188 0.000457874 1.7799e-22)
(0.00057158 0.00102479 0)
(0.000552422 0.000966823 -4.7928e-22)
(0.000645082 0.00109459 1.52745e-21)
(0.000503142 0.000134478 5.84297e-22)
(0.000600165 0.00111536 4.51459e-24)
(0.00042411 0.000611946 0)
(0.000550817 0.000961642 0)
(0.000325326 0.000873726 0)
(0.00163022 0.000138051 0)
(0.000571398 0.00101441 -3.60253e-22)
(0.000494075 0.000578094 0)
(0.000364032 0.00115428 -8.69583e-24)
(0.000694256 0.00122281 -1.07365e-23)
(0.000649849 0.000795569 0)
(0.000572258 0.000982684 3.51852e-22)
(0.000524315 0.000906652 5.05842e-22)
(0.000300907 0.000539992 0)
(0.000642095 0.00107223 0)
(0.000633281 0.0012339 1.00016e-21)
(0.000496131 0.000115688 8.91006e-22)
(0.000425298 0.00103326 -1.12683e-21)
(0.000601064 0.0012933 0)
(0.000675403 0.000944296 1.49979e-23)
(0.000701903 0.00121806 2.00287e-22)
(0.000604186 0.0010232 8.64808e-24)
(0.000649267 0.00110552 2.57458e-22)
(0.000721983 0.00126995 3.98639e-23)
(0.00056232 0.000934789 0)
(0.000555149 0.00100824 1.20657e-22)
(0.000554155 0.000967604 5.48079e-24)
(0.000267585 0.00160843 -4.79138e-23)
(0.000996189 0.000418543 -9.65199e-22)
(0.000540444 0.00105509 7.29405e-24)
(0.000908665 0.000394878 0)
(0.000264432 0.000647068 8.8469e-22)
(0.000556332 0.00100603 -8.40163e-23)
(0.000609246 0.00104147 -2.69413e-22)
(0.000597947 0.000694966 -7.29163e-22)
(0.000788182 0.000740927 3.9283e-22)
(0.000151811 0.000733595 -7.41747e-22)
(0.000778421 0.00138186 -5.18356e-22)
(0.000950189 0.00152764 5.10227e-22)
(0.00055436 0.000987626 0)
(0.000528193 0.00095817 1.1325e-23)
(0.000811774 7.51609e-05 -1.02084e-22)
(0.000711091 0.00127067 3.49971e-22)
(0.000504428 0.000925245 -3.6198e-23)
(0.00020458 0.000613166 1.21498e-22)
(0.000451333 0.000968816 0)
(0.000557573 0.000963202 -1.09829e-23)
(0.000463206 0.000754947 -3.03549e-23)
(0.000548849 0.00100744 -6.06697e-23)
(0.00065527 0.0011083 -8.52285e-22)
(0.000637048 0.00107418 0)
(0.000646898 0.00109245 -4.97036e-22)
(0.000753236 0.00126464 0)
(0.00080597 0.00138555 -6.30986e-22)
(0.000483855 0.00070344 -4.33037e-24)
(0.000910845 0.000914858 -7.34505e-22)
(0.000520086 0.000915283 0)
(0.000610201 0.0011161 0)
(0.000631491 0.00110579 -6.78343e-22)
(0.000679136 0.00121648 -2.30988e-22)
(0.000542383 0.000928357 1.00245e-21)
(0.000674557 0.00121494 -2.9128e-22)
(0.000540938 0.000943132 -4.41018e-22)
(0.000689804 0.00119792 4.02484e-22)
(0.000694416 0.0011986 -8.62403e-22)
(0.000282195 0.000610973 -7.12997e-23)
(0.000387177 0.000693883 5.96058e-22)
(0.000427542 0.000572624 1.42101e-21)
(0.000585223 0.00101151 0)
(0.000575911 0.00108152 5.99932e-22)
(0.00100416 0.000166594 -7.95051e-22)
(0.000682906 0.00112812 -1.59938e-22)
(0.000681787 0.00122505 2.37795e-22)
(0.000318154 0.00076633 6.35105e-22)
(0.000550972 0.000907662 5.78437e-23)
(3.10536e-05 -1.40673e-05 -3.01868e-24)
(0.000525476 0.000937357 1.25364e-21)
(0.000854034 0.000860914 3.35547e-22)
(0.00031871 0.00073277 -6.01341e-22)
(0.000554966 0.000734164 0)
(0.00101811 0.000409182 7.31898e-22)
(0.000381676 0.000678471 -3.95804e-22)
(0.000565282 0.000992344 0)
(0.00051069 0.000995644 -6.54156e-22)
(0.000961904 5.79459e-05 3.44307e-22)
(0.000557608 0.000966186 -2.60655e-22)
(0.000879453 4.09676e-05 -1.84062e-22)
(0.000449323 0.000840535 -5.11327e-22)
(0.00055399 0.00095589 -9.27027e-22)
(0.00050298 0.000230353 -6.37907e-22)
(0.000520359 0.000952032 -6.32486e-22)
(0.000681369 0.00115484 -3.6166e-22)
(0.000346381 0.000862274 -9.70446e-22)
(0.000735018 0.00125591 -1.25486e-22)
(0.000634557 0.00111746 -1.89627e-22)
(0.000572263 0.000982473 4.93731e-22)
(0.00070387 0.00122296 -1.52453e-22)
(0.000474982 0.001037 -1.01411e-21)
(0.000755817 0.00125249 -2.1558e-22)
(0.00060237 0.00118626 0)
(0.000495482 0.00084626 1.94015e-23)
(0.000789018 0.00138016 2.04847e-23)
(0.000573562 0.00101673 1.9732e-22)
(0.000523323 0.000930672 1.60414e-22)
(0.000465439 0.00119784 6.2047e-22)
(0.000534839 0.000929183 0)
(0.000590565 0.00101397 6.25057e-22)
(0.000521536 0.000890743 -2.1971e-22)
(0.000748279 0.00145479 4.09984e-23)
(0.000577336 0.00103587 -1.12974e-23)
(0.00047384 0.000515461 1.09469e-21)
(0.000547347 0.000944437 0)
(0.000618049 0.00046052 7.19757e-22)
(0.000838384 0.00108666 1.79789e-21)
(0.000650127 0.00120052 0)
(0.000379286 0.000242509 -6.92255e-22)
(4.22251e-05 0.00061887 0)
(0.000527648 0.000919276 1.20203e-22)
(0.00111679 0.000360653 -1.50085e-21)
(0.000599745 0.00101922 5.98451e-24)
(0.000511293 0.00088626 4.69803e-22)
(0.000756186 0.00128317 -4.22528e-22)
(0.000519634 0.000944032 0)
(0.000946683 0.000860879 1.0866e-21)
(0.00040869 0.00129219 3.27879e-23)
(0.000327984 0.000568559 3.36838e-22)
(0.000698299 0.00122195 -2.458e-22)
(0.000558626 0.000946009 8.64044e-24)
(0.000562969 0.00094384 -4.45883e-22)
(0.000698472 0.00122474 -2.59364e-22)
(0.000712993 0.00059014 1.34176e-23)
(0.000634979 0.00111875 -4.16919e-22)
(0.000715294 0.00125379 -3.99408e-22)
(0.000750992 0.000343537 1.53324e-21)
(0.000722101 0.00126553 -1.35894e-21)
(0.000529516 0.000971202 -1.8621e-22)
(0.000532316 0.000958626 -2.51718e-22)
(0.000399562 0.00024683 0)
(0.00039244 0.000642038 8.95291e-22)
(2.15521e-05 -1.23131e-05 2.53879e-24)
(0.00102529 0.00139297 -1.40805e-21)
(0.000796662 0.00138603 0)
(0.000632404 0.0010902 1.56013e-22)
(0.000560453 0.00100682 2.66316e-22)
(0.00056872 0.0010853 -2.37654e-22)
(0.000665196 0.00148194 -3.89608e-23)
(0.000438895 0.000875233 0)
(0.000890567 0.00136969 -6.84064e-22)
(0.000370425 0.000616022 5.00547e-22)
(0.000418138 0.000812769 2.36945e-22)
(0.00043014 0.000954408 -4.95859e-23)
(0.000678813 0.00116505 1.0718e-21)
(0.000575571 0.00101685 1.93845e-22)
(0.000389014 0.000731087 1.94009e-22)
(0.000412348 0.000914077 1.10174e-21)
(0.000922568 0.000115603 -1.15762e-21)
(0.000737467 0.0012683 -1.09914e-21)
(0.000466522 0.000291176 4.64732e-22)
(0.000668368 0.00122997 2.9167e-23)
(0.000687168 0.00121541 2.23977e-22)
(0.000988002 6.06653e-05 0)
(0.000942721 0.000101256 2.869e-23)
(0.000803967 0.00139059 1.4662e-22)
(0.00057446 0.00111011 1.08507e-22)
(0.000555412 0.000960543 -5.90449e-25)
(0.000692186 0.000103231 -1.9335e-21)
(0.000578783 0.0010151 2.89966e-22)
(0.000441 0.000956845 1.00981e-21)
(0.000580109 0.000910018 6.28719e-22)
(0.000717801 0.00131031 -6.38412e-23)
(1.65579e-05 -2.11283e-05 9.50485e-24)
(0.000801396 0.00089918 4.97857e-22)
(0.000687152 0.00122688 -1.72909e-22)
(0.00056955 0.00101008 -6.27037e-23)
(0.000212286 0.000807887 1.20293e-24)
(0.00105083 0.000155187 0)
(0.000209284 0.000953232 1.51203e-23)
(0.000555792 0.000927139 0)
(0.000505343 0.00089557 1.93993e-22)
(0.00101028 0.000190875 0)
(0.00045412 0.000860577 -1.67213e-22)
(0.00027095 0.000741505 -8.70567e-22)
(0.00056922 0.000882669 4.59374e-22)
(0.000608449 0.00103052 6.16667e-22)
(0.000263034 0.000337586 2.23818e-21)
(0.000653151 0.00122011 -6.47235e-23)
(0.000555007 0.000990761 -6.38187e-22)
(0.000486519 0.000934901 7.27683e-22)
(0.000524409 0.00100412 4.29958e-22)
(0.000583358 0.00113161 0)
(0.000365764 0.000611927 -2.43242e-22)
(0.000645829 0.00110963 4.79802e-22)
(0.000807603 0.00138413 9.45408e-22)
(0.000697867 0.00123061 0)
(0.000105108 -8.77104e-05 1.5334e-21)
(0.000325752 0.00056757 0)
(0.000665923 0.00114865 1.13693e-21)
(0.000544886 0.000911351 4.49356e-22)
(0.00055355 0.00104784 7.26089e-23)
(0.000698267 0.00123227 -3.04072e-22)
(0.000293894 0.000881331 4.36484e-22)
(0.000328106 0.000703664 -2.7492e-22)
(0.000569903 0.00104896 0)
(0.000665622 0.00109907 1.95063e-22)
(2.93984e-05 0.000811981 0)
(0.00025049 0.000803629 -3.89989e-22)
(0.00137216 0.000240399 0)
(0.000663406 0.00127203 -2.44702e-22)
(0.000752332 0.000103187 4.06331e-23)
(0.000678297 0.00117009 5.71208e-22)
(0.000709705 0.0012281 -1.61552e-22)
(0.000287684 0.000849144 4.96931e-22)
(0.000722171 0.00129453 -1.65969e-22)
(0.000669804 0.00110316 -1.94268e-22)
(4.42446e-05 0.000184572 5.34711e-22)
(0.000536041 0.0010563 6.53807e-24)
(0.000700362 0.00114334 -5.26458e-22)
(0.000552954 0.000951972 -3.38845e-22)
(0.000626067 0.00112094 0)
(0.000564665 0.0010585 0)
(0.000527461 0.000903302 -9.62972e-22)
(0.000515935 0.000980453 0)
(0.000377298 0.000610895 -7.62479e-22)
(0.000567845 0.0010144 -2.08482e-22)
(0.000557521 0.00104333 -3.67472e-23)
(0.000515622 0.000885197 3.24733e-22)
(0.000792342 0.00137124 -6.35505e-23)
(0.000341565 0.000644441 9.32071e-22)
(0.000551228 0.00096392 0)
(0.000481505 0.00103341 -3.33416e-22)
(0.000551204 0.000905261 3.79785e-23)
(0.000135548 0.000161943 0)
(0.00058107 0.00115647 8.3291e-23)
(0.000550025 0.000984398 3.52459e-24)
(0.00073234 3.86241e-05 3.88891e-24)
(0.000329347 0.000909525 5.85182e-24)
(3.41404e-05 6.50281e-08 1.00871e-21)
(0.000308139 0.000937126 4.07015e-22)
(0.000601386 0.00116889 -2.72345e-22)
(0.000778633 0.00139067 -7.57767e-22)
(0.000461441 0.000849743 -7.25896e-22)
(0.000580374 0.00099101 -4.38368e-23)
(0.000480032 0.000971192 0)
(0.000982135 0.00077255 6.15634e-22)
(-0.000154474 0.0010605 -4.70456e-22)
(0.000608616 0.00124134 0)
(0.000305103 0.00088343 -1.00924e-21)
(0.000482165 0.000519578 7.64409e-22)
(0.000562452 0.00102076 0)
(0.000667421 0.00110393 4.27437e-22)
(0.000616564 0.00111792 -6.93054e-23)
(0.000313233 0.000349753 -2.36241e-21)
(0.000422286 0.000425576 -1.6186e-22)
(0.000562222 0.00099401 -3.9699e-22)
(0.000418592 0.000895466 3.93048e-22)
(0.000564815 0.000996377 -2.25975e-22)
(0.000621368 0.00111703 -1.71764e-22)
(0.000575071 0.00105315 0)
(0.000769777 0.00125726 -4.96735e-24)
(0.000326996 0.000944049 0)
(0.000626007 0.00111636 4.50877e-24)
(0.00065076 0.00108761 1.88651e-22)
(0.000562293 0.00101142 -3.03209e-22)
(0.000786555 0.00137388 5.12128e-22)
(0.000329601 0.000572 2.39755e-22)
(4.52327e-05 -4.83133e-07 3.83342e-23)
(0.000465937 0.00113808 -5.70422e-22)
(0.00055939 0.000930524 4.1702e-22)
(0.000758711 0.00126475 4.51958e-24)
(0.00074099 0.00157572 0)
(2.01682e-05 -3.13045e-05 -6.46586e-22)
(0.000508703 0.000871809 -8.88373e-22)
(0.000638301 0.00118211 0)
(0.00057423 0.000825336 -4.91691e-22)
(0.000486478 0.00094186 0)
(0.000350707 0.000839543 8.41373e-22)
(0.000647938 0.00112511 4.25674e-22)
(0.00084699 0.00111624 -4.99188e-22)
(0.000596161 0.00101431 0)
(0.000804788 0.00138246 7.31975e-22)
(0.000670724 0.00111193 1.98781e-22)
(0.000514631 0.00096627 3.13048e-22)
(0.000555766 0.000960824 -5.39718e-22)
(0.000534241 0.00102111 -2.48766e-22)
(0.000762835 0.00128114 2.13853e-22)
(0.000237364 0.000905381 -1.61327e-21)
(0.000257188 0.000854145 -4.60579e-22)
(0.000467483 0.000874063 -4.73581e-22)
(0.000728845 0.000112326 -3.74818e-22)
(0.000641541 0.000487067 1.90871e-21)
(0.000908219 0.000213255 -1.64837e-22)
(0.000566829 0.000998493 -6.54597e-24)
(0.000381184 0.000550464 -8.30855e-22)
(0.000853572 0.000478847 1.42386e-21)
(0.000708719 0.00122492 -4.53141e-22)
(0.000531978 0.00091019 0)
(0.000542599 0.000974398 7.36271e-22)
(0.000304271 0.000837959 0)
(0.000696951 0.00120811 -3.61785e-22)
(0.000673808 0.00119201 -4.40482e-24)
(0.000649032 0.00063703 -1.02561e-21)
(0.000465661 0.000898929 5.47833e-22)
(0.00065449 0.000718427 -9.3703e-22)
(0.000474694 0.000949159 -3.5393e-22)
(0.000407649 0.000495557 2.32098e-22)
(0.000627652 0.000659438 7.2873e-22)
(0.000821814 0.00135728 1.96011e-23)
(0.000588451 0.000973372 1.79229e-23)
(0.000531313 0.00116513 0)
(0.000380139 0.000934885 6.89348e-22)
(0.000612583 0.00110229 -1.2004e-21)
(0.000394381 0.000981453 -7.84819e-22)
(0.000643317 0.000726202 1.11045e-21)
(0.000213033 0.000470768 4.76908e-22)
(0.000589703 0.00131625 -3.21636e-22)
(0.000403197 0.000206289 0)
(0.000621151 0.000836583 -2.9187e-21)
(2.12449e-05 2.74237e-05 -4.84194e-22)
(0.000458442 0.000755731 -1.65666e-22)
(0.000609395 0.00110785 -1.76888e-21)
(0.000540988 0.00102459 2.40913e-21)
(0.000460081 0.000838918 0)
(0.000436664 0.000896511 -1.30291e-21)
(0.000529794 0.00133284 -5.7144e-23)
(0.000622884 0.00121124 8.16567e-24)
(2.89676e-05 0.000743684 0)
(0.000665152 0.000676401 -2.70222e-21)
(0.000641199 0.00114609 -1.67536e-22)
(0.000752207 0.00153895 -5.0009e-24)
(0.000607766 0.000707584 -7.78352e-22)
(0.000558844 0.00101797 -9.25109e-22)
(0.00050123 0.00102615 -5.32963e-22)
(0.000550752 0.000958295 -5.04203e-24)
(0.000565282 0.00102907 -1.09391e-25)
(0.000650534 7.25769e-05 -1.81272e-22)
(0.00027001 0.000739785 -1.23865e-21)
(0.000645966 0.00108959 -5.00485e-22)
(0.000551401 0.000967136 -1.14295e-23)
(0.000572222 0.00100791 -2.28231e-22)
(0.000532759 0.00105142 -8.16306e-23)
(0.00056103 0.0010108 0)
(0.00077629 0.000236641 1.10158e-21)
(0.000574774 0.000998066 -4.64732e-22)
(0.000606083 0.000421535 6.20725e-22)
(0.000627141 0.00111653 1.45679e-21)
(0.000746584 0.00089196 0)
(0.00109158 0.000362572 7.18757e-22)
(0.000538232 0.00101446 2.97198e-25)
(5.22504e-05 9.99907e-05 -6.19734e-22)
(0.000628694 0.00102384 0)
(0.000318231 0.000630736 5.95585e-22)
(0.000766098 0.00136945 -8.8168e-22)
(0.00059926 0.00103682 0)
(0.000560836 0.00101398 0)
(0.000763252 0.00134296 0)
(0.000902989 0.000366009 -6.64306e-22)
(0.000458534 0.00099388 0)
(0.000504666 0.000710657 -1.92319e-21)
(0.000381825 0.000941774 -2.3254e-21)
(0.001202 0.00132226 -8.40244e-22)
(0.000657053 0.00109609 -1.87814e-22)
(0.000726679 0.00128986 -7.35572e-25)
(0.000547024 0.000914528 6.02914e-22)
(0.000549949 0.000353033 -4.56068e-22)
(0.000678452 0.00119685 0)
(0.000498351 0.000687033 -6.15646e-22)
(0.000546785 0.000705113 8.31574e-22)
(3.36441e-05 -1.21322e-05 0)
(0.000521363 0.001008 -2.27965e-22)
(0.000548119 0.000928797 1.98704e-22)
(0.000349026 0.000785154 0)
(0.000811742 0.00019772 4.63659e-22)
(0.000642727 0.00115124 0)
(0.000392956 0.000922067 3.05483e-22)
(0.000798861 0.00137034 1.11987e-21)
(0.00047667 0.000941127 -1.04365e-21)
(0.000568905 0.00110986 -6.80551e-23)
(0.000392356 0.000993965 -1.53105e-21)
(0.000486389 0.000579028 -1.6964e-21)
(0.000616977 0.000765262 -7.37622e-25)
(0.000430928 0.00104161 1.18624e-22)
(0.000663618 0.00108065 8.96909e-23)
(0.000568457 0.000363603 9.20693e-22)
(0.000681297 0.000867282 -2.44526e-21)
(0.000456517 0.000754019 0)
(0.000659673 0.00119283 5.72322e-22)
(0.000548702 0.00097866 -2.2186e-21)
(0.00040317 0.000923488 0)
(0.000875673 0.000335204 1.5008e-21)
(0.000565442 0.00101704 0)
(0.000744334 0.0013617 -1.25722e-22)
(0.000797057 0.00138493 -6.11838e-22)
(0.000767782 0.00136217 4.93943e-22)
(0.000793104 0.00137172 -7.91847e-22)
(0.000646505 0.00121839 -1.9389e-22)
(0.000455225 0.00023646 8.03204e-25)
(0.0005019 0.000438069 -1.24503e-21)
(0.000589392 0.000243777 0)
(0.000606586 0.00112238 1.13374e-21)
(0.000880686 8.67608e-05 -4.16596e-22)
(0.000633728 0.00110221 0)
(0.00061366 0.00116545 0)
(0.000200795 0.000401915 4.85865e-22)
(0.000599569 0.00120577 0)
(0.00061657 0.00114411 -2.57781e-21)
(0.000485549 0.00105266 5.16619e-22)
(0.000786689 0.00136945 7.32009e-22)
(0.000261495 -1.23428e-05 -5.05842e-22)
(0.000543875 0.000819832 -8.38917e-22)
(0.000117665 0.000510169 -6.49681e-22)
(0.000871445 0.00119211 -1.96062e-21)
(0.000572977 0.00101509 -2.04811e-22)
(0.00066115 0.00105686 1.45091e-21)
(0.000638118 0.00111853 -1.16503e-22)
(0.000662342 0.000169555 3.19686e-24)
(0.000822348 0.00134826 6.08444e-22)
(0.000584327 0.00105111 2.20565e-22)
(0.000642254 0.00111462 5.75345e-23)
(6.84789e-05 0.000511661 0)
(0.000584314 0.00105823 0)
(0.000527954 0.000991642 -1.35053e-21)
(0.000605007 0.00108878 4.66574e-23)
(0.000541282 0.00100416 -1.15864e-21)
(0.000566566 0.000985907 -2.76379e-24)
(0.000544681 0.000998524 0)
(0.000607055 0.000792978 -6.04453e-22)
(0.000789898 -6.52746e-05 -1.82705e-21)
(0.000574328 0.000407225 0)
(0.000562281 0.00100281 6.95816e-23)
(0.00057592 0.000995153 -4.30918e-23)
(0.000674991 0.000555381 1.69128e-21)
(0.000552921 0.00100129 7.44165e-25)
(0.000765425 0.00133331 -7.83411e-24)
(0.000482041 0.00100865 -4.35192e-22)
(0.00064939 0.00119014 -1.06225e-22)
(0.000611941 0.00118651 -7.37661e-23)
(0.000695859 0.0011758 0)
(0.000440754 0.00131422 1.34249e-21)
(0.000632329 0.00109424 9.9769e-22)
(0.000548187 0.00112223 -7.0938e-22)
(0.000349553 -4.54931e-05 -1.48297e-25)
(0.000634536 0.00117362 -5.54057e-22)
(0.000432356 0.000883048 1.27404e-21)
(0.000369168 0.000153849 7.19572e-22)
(0.000638166 0.00112266 0)
(0.000577508 0.00101511 9.72395e-22)
(0.000338798 0.000748814 -2.06536e-22)
(0.00117129 -3.32157e-05 5.97663e-22)
(0.00030069 0.000784551 6.7169e-22)
(0.000742556 0.00126256 1.33996e-22)
(0.000636919 0.00112477 -5.83628e-22)
(0.000555349 0.000991479 -7.49034e-22)
(0.000558478 0.000939388 1.98785e-21)
(0.00079384 0.00138025 4.66922e-22)
(0.000602435 0.000221136 -1.40896e-21)
(0.000567419 0.000180567 1.62109e-21)
(0.000621752 0.000118034 -1.6774e-21)
(0.000771583 0.00135127 3.10381e-23)
(0.000416688 0.000905107 -2.5201e-21)
(0.00064677 5.34263e-05 8.80067e-22)
(0.000625931 0.00118121 0)
(0.00079283 0.00138312 -4.75647e-22)
(0.000587784 0.00101121 8.93903e-22)
(0.000325703 0.000814118 -2.25762e-22)
(0.000258331 0.000393289 -1.14915e-22)
(0.000544232 0.00100939 6.75197e-24)
(0.000589798 0.00108709 2.23813e-22)
(0.000595474 0.00103845 -4.96575e-22)
(0.000549077 0.001026 0)
(0.000537121 0.00091662 -8.57913e-22)
(0.000674417 -5.62692e-06 9.20183e-22)
(0.000616231 0.00114496 -5.70545e-22)
(0.000683537 0.00121138 5.50292e-22)
(0.000938151 0.00131052 -4.02748e-23)
(0.000582072 0.000240223 0)
(0.000422516 0.000141105 -6.56828e-22)
(0.000645586 0.0010955 -7.06184e-24)
(0.000636397 0.00112556 -6.15139e-22)
(0.000561898 0.00104836 3.29853e-23)
(2.02049e-05 1.6558e-05 1.37182e-22)
(0.000633188 0.00111549 1.24044e-22)
(0.000441854 0.00079235 -1.03212e-21)
(0.000819408 5.1014e-05 8.66597e-22)
(0.0006616 0.000134925 8.57512e-22)
(0.000730458 0.00137148 -2.00551e-23)
(0.000588475 0.00122445 0)
(0.000442827 0.00074152 -9.16135e-22)
(0.00036728 0.000644034 0)
(7.24163e-05 -3.83603e-06 7.24933e-22)
(0.000634635 0.00111703 -3.84721e-22)
(0.00070734 8.0791e-05 -1.03261e-21)
(0.000630918 0.00111306 -4.94545e-22)
(0.00051827 0.00105642 5.42355e-22)
(0.00048841 0.000959833 5.97346e-22)
(0.000755175 0.00127066 -5.08394e-22)
(5.45501e-05 0.00014002 2.33076e-21)
(0.000787763 0.00136717 1.97794e-22)
(0.000894075 8.80019e-05 0)
(0.000561829 0.00107789 9.70427e-23)
(0.000453304 0.000697708 -3.78562e-24)
(0.000574891 0.0010173 0)
(0.000587571 0.000442907 -2.47936e-21)
(0.000862692 -3.88642e-06 0)
(0.000642196 0.00111476 1.10509e-22)
(0.000553297 0.0010125 6.9648e-22)
(0.000669498 0.00118687 -1.66706e-21)
(0.000617665 0.00109303 -1.50931e-22)
(0.000823778 0.00015379 -1.00166e-22)
(0.000572195 0.00100819 0)
(4.32368e-05 0.000351377 -1.47616e-22)
(0.000795134 0.00140233 0)
(0.000175652 0.000360447 0)
(3.58473e-05 0.000768589 -3.55528e-22)
(0.000526144 0.00106386 -9.75005e-22)
(0.000643385 0.000185063 -7.70604e-22)
(0.000638678 0.00108982 9.91072e-22)
(0.000435424 0.000936917 1.58762e-22)
(0.000742393 0.00118408 -1.12912e-21)
(0.000552216 0.00127586 0)
(0.000593611 0.00105266 4.08898e-22)
(0.000794867 0.0013844 0)
(0.000802821 0.00138891 -7.97732e-24)
(0.000561354 0.00106415 1.20042e-21)
(0.000584056 0.000999805 1.00429e-22)
(0.000556337 0.000664643 2.06938e-21)
(0.000474591 0.000407555 1.3043e-21)
(0.000482475 0.000996544 0)
(0.000595377 0.00105298 -1.27669e-22)
(0.000798082 0.0013867 0)
(0.000575115 0.00101167 0)
(0.00057654 0.0010812 -1.28814e-21)
(0.00100816 0.000170832 7.14564e-22)
(0.000584347 0.00122953 0)
(0.00020053 7.49166e-06 9.61085e-22)
(0.000516336 0.000957856 -8.11049e-23)
(2.53397e-05 0.000122812 1.1188e-21)
(0.000677203 0.000479507 -1.01254e-22)
(0.00069547 0.00117928 5.43359e-22)
(0.000801818 0.0011333 1.05237e-21)
(0.000684822 0.00108244 -5.28065e-22)
(0.000528591 0.00123804 0)
(0.000548338 0.00104537 6.06899e-22)
(2.81734e-05 0.000396281 3.79547e-23)
(0.000573041 0.00101788 -4.52341e-22)
(0.000525983 0.00103855 -2.83369e-22)
(0.000795191 0.00138176 -4.16687e-22)
(0.000788156 0.00137045 -1.36197e-24)
(0.000573766 0.00102682 0)
(0.000650674 0.00121972 5.42936e-22)
(0.000665957 0.00109737 -8.8925e-22)
(0.000599376 0.00105146 2.29202e-22)
(0.000871968 0.000229268 5.17946e-22)
(0.000587125 0.00105136 8.3883e-22)
(0.000601804 0.00104852 0)
(0.000550446 0.00109948 0)
(0.000540505 0.00105591 5.58446e-22)
(0.000532314 0.000926361 -1.14976e-22)
(0.000574156 0.000995187 1.21176e-21)
(0.000634155 0.00112367 0)
(0.00053691 0.000913509 4.75827e-22)
(0.00103454 0.000381169 9.44345e-24)
(0.000629716 0.00113171 2.84619e-22)
(0.000579591 0.00102151 -8.52821e-22)
(0.000597665 0.000675621 6.02354e-22)
(0.000622716 0.00111232 -8.67796e-22)
(0.000704711 0.0012261 5.33155e-25)
(0.000752711 4.05005e-05 -1.52496e-21)
(0.000571947 0.00114836 2.05478e-22)
(0.000279088 0.000977269 0)
(0.000601545 0.00106548 -1.16026e-21)
(0.000426818 0.000953722 7.34377e-25)
(0.000434007 0.00128859 0)
(0.000335472 0.000894318 7.6377e-22)
(0.000619057 0.00110514 -1.09622e-21)
(3.51749e-05 -1.96455e-06 1.55656e-21)
(0.000266771 0.00133011 -9.18174e-22)
(0.000629177 0.00112513 -5.75158e-22)
(0.000662638 0.000427284 4.71145e-22)
(0.000566256 0.00101547 4.12609e-22)
(0.000580541 -0.000426508 -1.05714e-22)
(0.00082822 9.35163e-05 0)
(5.95106e-05 -1.30732e-06 0)
(0.000556225 0.00101587 -1.4569e-21)
(4.09466e-06 2.24122e-05 7.44366e-23)
(0.000624956 0.00111119 9.54395e-22)
(0.000566378 0.00100438 1.12089e-22)
(0.000565369 0.0010297 1.01565e-22)
(0.000624624 0.00109697 1.77904e-22)
(0.000539538 0.00115678 6.26508e-22)
(4.33198e-05 2.36455e-06 -1.67963e-22)
(0.000657612 0.00122732 -9.52148e-22)
(0.000602591 0.00104669 -1.69749e-22)
(0.000291769 5.52644e-05 0)
(0.00056615 0.00102925 4.76431e-22)
(5.09426e-05 -7.83496e-06 0)
(0.000646131 0.00109112 -9.89186e-22)
(5.74755e-06 -6.06167e-05 0)
(4.58764e-05 -6.42202e-06 0)
(0.000688449 0.00121751 3.21929e-22)
(0.000557944 0.00105413 4.96083e-22)
(0.000382057 0.000595982 -1.94364e-22)
(0.000568648 0.00100686 -7.72274e-22)
(0.000601757 0.0010489 -6.96195e-22)
(0.000641166 0.00110861 -4.79881e-22)
(3.98521e-05 0.000220605 -2.90874e-22)
(0.000882905 9.7456e-05 0)
(0.00080042 0.00137516 0)
(0.000666445 0.00131172 -5.59212e-22)
(0.000596846 0.00105162 6.24714e-22)
(0.000632587 0.0011152 0)
(0.000578837 0.00101611 -1.66464e-21)
(0.000584407 0.000989675 -1.82076e-21)
(0.000613436 0.00117433 0)
(0.000573308 0.00100873 0)
(0.000574853 0.00103441 -2.21217e-22)
(0.000403538 0.00030173 4.94141e-22)
(0.000529032 0.000816226 -3.68704e-25)
(0.000598015 0.00104979 -1.43041e-22)
(0.000671252 0.00122757 2.28428e-22)
(0.000594758 0.00105351 6.76787e-22)
(0.000584624 0.00105271 -7.02539e-22)
(0.000787754 0.00137273 -1.34217e-21)
(0.000569773 0.0010163 4.4753e-23)
(0.00062669 0.000358363 -2.59022e-21)
(0.000614769 0.00116535 -7.57286e-24)
(0.000603289 0.00104788 -1.95554e-22)
(0.00066123 0.00120358 -3.83403e-24)
(4.93881e-05 7.93518e-06 -3.39153e-23)
(1.90026e-05 9.79341e-05 -1.10196e-21)
(0.000567742 0.00101209 7.66187e-22)
(0.000601403 0.00107186 -7.16525e-22)
(0.000830002 0.000801526 0)
(0.000577623 0.00101146 8.29672e-22)
(0.000601816 0.00120397 -3.55277e-23)
(0.000664999 0.00123404 -6.41547e-23)
(0.000555447 0.001136 -1.46879e-21)
(1.55768e-05 8.12069e-05 -4.33999e-22)
(0.000672335 0.00123851 0)
(0.000635333 0.00112774 0)
(0.000590768 0.00105279 5.55643e-22)
(-3.86491e-06 3.85856e-05 1.67295e-24)
(0.000520934 0.00108147 0)
(0.000795236 0.00137437 5.58135e-22)
(0.000585732 0.00100871 8.92664e-22)
(6.09063e-05 0.000239967 0)
(0.000668427 0.00118082 0)
(4.83063e-05 1.1794e-05 3.30351e-23)
(0.000583899 0.00103158 1.58877e-21)
(0.000373035 0.00102242 7.92728e-22)
(0.000806149 0.00137618 3.61533e-22)
(0.000608006 0.00110671 -2.76189e-22)
(0.000570179 0.00100833 -1.90529e-22)
(0.000604534 0.00104599 0)
(0.000562385 0.00106677 -5.92556e-22)
(0.000641646 0.00111558 0)
(5.35838e-05 -2.21059e-05 -6.25482e-22)
(0.000788738 0.00137858 -1.72196e-21)
(0.000802417 0.00138446 9.38531e-22)
(1.78663e-05 0.000122056 1.78733e-21)
(5.77601e-05 -1.10897e-05 0)
(0.000788364 0.00136691 4.60162e-22)
(0.000652383 0.00121456 -1.78666e-26)
(0.00057244 0.00105383 7.17058e-23)
(0.000592171 0.00103634 -3.07645e-22)
(0.00058689 0.00110948 8.21767e-23)
(0.00058424 0.00103148 -1.19461e-21)
(0.000599474 0.0010821 -5.91079e-22)
(0.000499993 0.0012687 8.63916e-25)
(0.000637814 0.00111918 5.272e-22)
(0.000571499 0.00100441 -1.14715e-22)
(6.37211e-05 0.000283527 0)
(2.88505e-05 2.0225e-05 2.59242e-22)
(0.000739253 0.00127706 -5.14611e-22)
(0.000893049 0.000104105 2.78832e-22)
(0.000579475 0.00102714 0)