/*--------------------------------*- C++ -*----------------------------------*\
  =========                 |
  \\      /  F ield         | OpenFOAM: The Open Source CFD Toolbox
   \\    /   O peration     | Website:  https://openfoam.org
    \\  /    A nd           | Version:  8
     \\/     M anipulation  |
\*---------------------------------------------------------------------------*/
FoamFile
{
    version     2.0;
    format      ascii;
    class       volVectorField;
    location    "5";
    object      U;
}
// * * * * * * * * * * * * * * * * * * * * * * * * * * * * * * * * * * * * * //

dimensions      [0 1 -1 0 0 0 0];

internalField   nonuniform List<vector> 
7843
(
(0.000731672 0.00131053 -2.55e-22)
(0.000545938 0.000986773 1.16697e-21)
(0.000548924 0.00100928 0)
(0.000969875 2.73695e-05 7.15009e-22)
(0.000682874 0.00120312 -3.19269e-22)
(0.00101036 2.43439e-05 -8.48858e-23)
(0.000578127 0.000530922 -2.47722e-21)
(0.000576688 0.0010196 0)
(0.000216901 9.59617e-05 3.40181e-21)
(0.000559287 0.000975166 0)
(0.000576626 0.00102222 9.32669e-22)
(0.000734026 0.00129705 0)
(0.000314995 5.4683e-05 0)
(0.000575513 0.00103534 0)
(0.000579529 0.000986657 1.56221e-21)
(0.000392826 0.000675305 9.52877e-22)
(0.000574415 0.00102013 2.90836e-24)
(0.000580567 0.000986041 0)
(9.89099e-06 9.20877e-05 1.01447e-21)
(0.00025357 0.000385553 0)
(0.000206104 0.00014198 2.92525e-21)
(0.00041019 0.000444421 -4.89204e-22)
(0.000578657 0.0010264 2.4702e-24)
(8.18445e-05 0.000865688 -1.3671e-22)
(0.000750502 0.00122818 -5.955e-22)
(1.76647e-05 -5.47897e-06 0)
(0.000546564 0.0013712 -4.64129e-23)
(5.62914e-05 0.000384532 2.94675e-21)
(0.000653832 0.00119792 -1.25759e-22)
(0.0010205 1.47792e-05 -8.12092e-22)
(0.000881367 0.000163384 -1.0458e-21)
(0.000547188 0.00102435 3.38976e-22)
(0.000807932 -9.19286e-05 9.74868e-22)
(0.000597775 0.00103002 1.3461e-22)
(0.000541267 0.000972527 9.03526e-22)
(0.000814243 0.00125507 -2.13892e-21)
(0.000579654 0.000975705 -6.74414e-22)
(0.000927836 0.00034563 5.21593e-25)
(0.00101051 5.09785e-05 -1.09962e-22)
(0.000508221 0.000932602 9.80625e-22)
(0.000578962 0.000982907 -1.77955e-23)
(0.000600619 0.00106979 -1.08737e-21)
(0.000735804 0.00125424 0)
(0.000552517 0.000984693 -2.35062e-21)
(0.000223717 7.94223e-05 -1.03012e-21)
(0.000189568 0.000459396 6.78744e-22)
(0.000578183 0.00103308 9.94232e-22)
(0.000206227 0.000585837 1.36745e-21)
(0.000587004 0.00103058 1.22849e-21)
(1.08256e-05 3.31977e-05 2.68014e-23)
(0.000353608 4.51768e-05 -9.74095e-22)
(0.000556781 0.000983349 1.26293e-23)
(0.00057426 0.00102776 0)
(0.000766939 0.000529303 8.74435e-22)
(0.000672664 0.00116266 -2.37835e-22)
(7.51249e-06 8.43628e-05 0)
(0.000366614 0.000451266 2.60512e-21)
(0.000548757 0.000101425 9.98602e-22)
(0.000741805 0.0012956 -3.90468e-24)
(9.71647e-05 0.000170004 -1.33372e-21)
(0.000734527 0.00125732 3.99882e-22)
(0.00103291 0.000448753 9.25193e-23)
(6.97349e-05 0.00055325 -4.5777e-21)
(0.000824867 0.000117767 -1.78778e-21)
(0.000651104 0.00128693 7.91434e-24)
(0.000726323 0.00132132 -6.44788e-22)
(0.000753042 0.00124345 0)
(1.01965e-05 6.73148e-05 0)
(0.000569616 0.000526297 0)
(0.000735344 0.00125767 0)
(0.000360958 -0.000133555 -9.53235e-22)
(0.000569304 0.000990876 9.97026e-22)
(0.000214344 0.00114561 1.88496e-23)
(9.96338e-05 0.000164941 8.71665e-22)
(0.00034208 -9.27273e-05 -8.6573e-22)
(0.00046617 0.000867562 8.07413e-22)
(0.00073707 0.00125266 3.19352e-22)
(0.000734212 0.00125617 -1.35677e-22)
(0.000601343 0.00106312 0)
(0.000893562 9.01198e-05 0)
(0.000466593 -2.25926e-05 -1.35985e-21)
(0.000670376 0.00121812 0)
(0.000572479 0.00103544 -1.16213e-21)
(0.00069411 0.000319459 2.13864e-21)
(0.000488119 0.000835317 -6.42777e-22)
(0.000595798 0.00103444 -6.53714e-22)
(0.000454991 0.000358149 0)
(0.0007372 0.00126841 -8.81965e-23)
(0.000830668 0.000309152 -1.64636e-21)
(0.000217094 0.000458428 9.89752e-22)
(0.000190479 0.000175259 -5.55854e-21)
(0.000595962 0.00100841 -5.54702e-22)
(1.47916e-05 5.03642e-05 7.03223e-26)
(0.000850553 0.00012976 3.11367e-21)
(0.000519747 0.000344816 0)
(0.000759224 0.00132441 9.87481e-22)
(2.40562e-05 6.90643e-05 -2.16423e-21)
(0.000362172 0.000970677 -2.43773e-23)
(0.000411508 3.29361e-05 1.48041e-21)
(0.000476069 0.000893131 -8.16366e-22)
(0.000407664 0.00107745 0)
(0.000519605 0.00119053 1.74435e-22)
(0.000369917 0.000400485 0)
(0.000684106 0.00146071 0)
(0.000202439 0.000203702 -1.41686e-21)
(0.000146101 0.00111823 -1.21297e-21)
(8.45277e-06 4.84782e-05 1.96693e-22)
(0.000352694 -0.000179153 -9.68165e-22)
(0.000430907 0.000880194 -7.93386e-22)
(0.000559959 0.000976577 0)
(0.000674356 0.00122959 1.49722e-23)
(0.00058394 0.000576738 -8.83011e-22)
(0.00106162 0.000413545 8.60297e-23)
(0.0006055 0.00102047 -7.39299e-22)
(0.000168244 0.000313265 -2.68881e-21)
(0.000734928 0.00126759 -6.7397e-22)
(0.000828174 0.000273913 1.878e-24)
(0.000745604 0.00131309 1.09389e-22)
(0.000189052 0.000208909 0)
(0.000596475 0.00100545 1.77788e-21)
(0.00068184 0.00120645 5.92866e-22)
(0.000671673 0.00119657 1.14967e-22)
(0.000546242 0.00100036 -9.69804e-22)
(0.000674611 0.00114212 2.55717e-22)
(0.000495679 2.8846e-05 -1.24421e-21)
(0.000370634 0.000507883 0)
(0.000614277 0.00101714 0)
(0.000187719 0.000869323 -2.21648e-21)
(0.000513175 0.000765808 -9.68784e-23)
(0.00100639 3.36089e-05 0)
(0.000596228 0.00100808 5.60121e-22)
(0.000177518 0.000378326 5.15334e-22)
(0.000354399 0.000181092 1.78753e-21)
(0.000671586 0.00117491 -6.3861e-22)
(0.000516138 0.000984367 -2.56294e-21)
(0.000576757 0.00097393 -1.0081e-21)
(0.000984274 3.60665e-05 5.35404e-23)
(0.000309627 0.000723007 -1.96992e-23)
(0.000579451 0.000978916 -5.92532e-24)
(0.000737836 0.00126265 2.78908e-22)
(0.000475899 7.75751e-05 -1.06032e-21)
(0.000565243 0.000829339 1.27887e-21)
(0.000709247 0.000247572 6.57369e-23)
(0.00095535 -0.000232703 1.32921e-21)
(1.40865e-05 5.26197e-05 1.09449e-25)
(0.000773443 -2.93551e-05 7.76028e-22)
(0.000605991 0.00108156 -1.15508e-21)
(0.000494715 0.000966112 -1.85169e-23)
(0.000694435 0.000852855 1.63827e-21)
(8.84031e-05 0.000854829 1.24963e-21)
(0.000595431 0.00103192 9.77116e-24)
(0.000534973 0.000564601 -1.02311e-21)
(0.000775934 0.000171544 9.9297e-22)
(0.000595152 0.0010041 0)
(0.000753958 0.001243 9.05035e-22)
(0.000571633 0.00101391 -9.94241e-22)
(4.9745e-05 0.000301208 -1.74454e-21)
(0.000198653 0.0003869 -7.14813e-22)
(0.000563881 0.00101923 2.45093e-21)
(0.000576727 0.000993165 0)
(0.00034066 0.000108449 2.12398e-21)
(0.000572826 0.00101177 -2.01012e-21)
(0.00131719 0.000400382 6.47882e-23)
(0.000572611 0.0010123 -8.71131e-24)
(0.000572953 0.00102289 -1.20181e-21)
(0.000574834 0.00102504 -4.22613e-22)
(0.000703319 0.000301101 -1.25264e-21)
(0.000263507 0.00126983 0)
(0.000599137 0.00102923 -2.54832e-22)
(0.000572776 0.001016 1.04551e-21)
(0.000574722 0.00104308 0)
(0.00057288 0.00102212 1.16779e-21)
(0.000572324 0.00101779 -4.40324e-24)
(0.000129714 0.000317093 -2.75556e-21)
(0.00057306 0.00101996 -1.12108e-21)
(0.000324065 9.88798e-05 -9.51074e-26)
(0.000483845 0.000887171 0)
(0.000233391 2.5398e-05 1.15313e-22)
(0.000475465 0.000884828 9.44905e-22)
(0.000737198 0.00129452 -3.75919e-22)
(0.00049687 0.000848346 2.81385e-22)
(0.000597016 0.00102661 -5.76638e-23)
(3.94336e-05 0.000235579 -3.1667e-26)
(0.000557134 0.00101598 0)
(0.00055533 0.000984189 9.84938e-22)
(0.000413576 0.000565098 -4.34338e-23)
(8.62584e-06 4.49672e-05 2.49909e-23)
(0.000547494 0.000582658 9.66559e-22)
(0.000476798 0.0007949 0)
(0.000216569 0.000464205 0)
(0.000571489 0.000983235 -4.72567e-22)
(0.0003833 0.000679454 1.11324e-21)
(0.000871639 7.4627e-05 9.24283e-22)
(0.000325635 6.70598e-05 0)
(0.000549727 0.00100005 -1.06317e-21)
(9.95824e-05 0.000111819 3.16257e-22)
(2.32065e-05 -1.22149e-06 0)
(0.000255514 0.00034525 3.05483e-21)
(0.00073691 0.0012615 -1.0092e-22)
(0.000474077 0.00094524 1.29923e-21)
(0.000559283 0.00098145 2.3646e-21)
(0.000740375 0.00127877 1.48798e-22)
(0.000594582 0.00100984 1.07783e-21)
(0.000694409 0.00118118 3.96295e-22)
(0.000492676 0.000944499 9.36599e-23)
(9.42745e-05 0.000103034 -4.33003e-22)
(0.00074881 0.00132774 1.08842e-22)
(1.37783e-05 0.000168434 3.43067e-22)
(1.50247e-05 -7.82252e-06 -6.4555e-22)
(0.00059539 0.00100533 -6.01504e-22)
(0.000799961 0.000759573 0)
(0.000559614 0.000979436 -1.20332e-21)
(0.000271853 0.000509859 8.09598e-22)
(0.000731659 0.00125179 3.91227e-22)
(0.000754657 0.00124229 2.49155e-22)
(0.000459308 0.000926229 2.65303e-21)
(0.000720628 0.000224721 -2.23966e-22)
(0.000673602 0.0011941 0)
(2.64399e-06 8.5042e-07 0)
(0.000762068 0.000491208 0)
(0.000477232 0.000349686 4.55192e-22)
(4.62385e-05 0.000502352 3.40149e-22)
(0.000237223 0.000989944 0)
(0.000571029 0.00102256 1.20028e-21)
(0.000690601 0.000705358 2.19973e-22)
(0.000862469 0.000123265 0)
(0.001249 0.000299542 0)
(0.00075125 0.00124473 0)
(0.000566376 0.00102218 5.6678e-24)
(0.000984653 0.000465368 0)
(0.000190468 0.000610487 0)
(6.85902e-06 4.15405e-05 -4.85532e-23)
(4.21752e-06 2.43805e-05 -4.23043e-22)
(0.000609249 0.00105486 1.69544e-22)
(0.000537735 0.000457748 -6.87453e-22)
(0.000754711 0.00124196 -4.88293e-22)
(0.000617345 0.00106585 0)
(0.000381386 0.000840508 -2.0027e-22)
(0.000753963 0.0012431 8.80201e-22)
(0.000443334 0.00121805 0)
(0.000648144 0.00115703 -7.69355e-22)
(0.000571435 0.000968786 3.44586e-22)
(0.000649942 0.00115921 7.33293e-22)
(0.000573498 0.00100305 -7.84614e-22)
(0.000249339 0.00055017 0)
(0.000475906 0.000885939 2.28133e-22)
(0.00103677 9.0815e-05 1.04406e-22)
(0.000900108 0.000315059 -3.2188e-21)
(0.000551993 0.000975076 0)
(0.000591387 0.00101795 -1.74397e-23)
(0.000938828 6.14635e-05 2.83622e-22)
(3.73597e-06 1.88405e-05 -3.46782e-26)
(0.000477366 0.000798009 -1.25585e-21)
(0.000753465 0.00124118 0)
(0.000450266 0.000843917 6.96361e-23)
(0.000766874 0.00131326 -4.88277e-22)
(0.000369445 0.000724907 0)
(0.000754298 0.00124116 2.47084e-22)
(0.000594965 0.00145841 -3.06279e-23)
(0.000614472 9.33955e-05 -1.50745e-21)
(0.000820567 7.11817e-05 -6.04292e-22)
(0.000344366 0.000463465 -2.06313e-21)
(0.000482924 0.00114897 1.30227e-22)
(0.000750971 0.00123977 1.08222e-21)
(0.000753687 0.00130097 -4.07715e-22)
(0.000830927 0.000564172 3.82434e-21)
(8.69898e-05 9.46455e-05 1.10537e-22)
(0.000573072 0.00102265 0)
(3.97232e-06 2.15277e-05 4.21688e-22)
(0.000268559 0.000872212 -2.58325e-24)
(0.000464537 -6.26135e-05 -8.55477e-22)
(5.57194e-07 2.53044e-05 0)
(0.000342139 -0.000225543 9.464e-22)
(0.000234977 0.00116968 0)
(0.000748663 0.00123983 1.28511e-21)
(0.00043708 0.000348759 -1.06246e-24)
(0.000698412 0.00118095 4.66218e-22)
(0.000612149 0.00106624 3.45308e-22)
(0.000508776 0.000539076 1.48759e-24)
(0.000419645 0.000674775 -1.05121e-21)
(0.000742669 0.0013098 1.88372e-22)
(0.000752711 0.0012404 -1.0396e-21)
(0.000596754 0.00100644 5.76099e-22)
(0.000488062 0.000342851 -1.74367e-21)
(0.000868743 9.0636e-05 -1.33828e-25)
(0.00010657 0.000121892 -1.943e-22)
(0.000478744 0.000477048 9.03132e-22)
(0.000580755 0.00102611 1.02551e-21)
(0.000728615 0.00130926 3.12878e-22)
(0.000594217 0.00100454 2.96189e-24)
(3.54813e-06 1.62469e-05 -4.23396e-22)
(0.000794896 0.000174165 0)
(0.000942369 0.000104684 -4.0108e-21)
(0.000597069 0.00102024 -1.76317e-22)
(0.000314576 0.000534242 2.83293e-21)
(0.000692957 0.00118906 -1.17393e-21)
(0.000572218 0.000999956 0)
(0.00113917 0.000197346 -3.18254e-21)
(0.000551395 0.000827363 -2.94218e-22)
(0.000745887 0.00124228 1.42784e-21)
(0.000377234 0.000773112 -2.73005e-22)
(0.000179492 0.000419788 9.9094e-22)
(0.000563031 0.000967854 0)
(0.000647119 0.00115467 -5.25988e-22)
(0.000158439 0.000295431 0)
(0.000365109 0.000568293 -9.26152e-22)
(3.38914e-06 1.37538e-05 4.10692e-22)
(0.000448959 0.00090982 -1.12379e-21)
(0.000318452 0.000528325 -1.43138e-21)
(0.000196591 0.000563847 1.8619e-24)
(0.000329096 0.000548914 7.84415e-22)
(0.000446114 0.000851641 2.31462e-22)
(0.000835091 0.000255197 -1.2624e-21)
(0.000386953 6.37599e-05 -2.34545e-21)
(0.000249399 1.16991e-05 -9.19974e-22)
(0.000572453 0.000350178 -2.94641e-22)
(0.000572669 0.00102303 2.37484e-21)
(0.000401984 0.000676818 0)
(0.00046443 -0.000345452 0)
(0.000470702 0.000783498 6.23017e-22)
(0.000186909 5.84118e-07 6.1323e-22)
(0.00020462 4.92543e-06 0)
(0.000573009 0.00102095 -1.14745e-21)
(0.000750648 0.00123927 -1.46745e-22)
(0.000368302 0.000332471 -1.23576e-21)
(0.000193846 0.000714983 0)
(-0.000296572 -1.79056e-05 0)
(0.000269042 0.000274182 2.54606e-21)
(0.000181955 0.000593998 -7.88621e-22)
(0.000159757 1.76893e-05 0)
(0.000390701 0.000691309 0)
(0.00075192 0.00123995 1.05345e-21)
(0.000953944 3.25852e-05 -3.17578e-22)
(0.00075975 9.01585e-05 1.92448e-21)
(-0.000161642 0.0011771 0)
(0.000239859 0.000459769 6.78205e-21)
(0.000454597 0.00104606 -6.71034e-23)
(0.000565606 0.00100057 -1.73701e-21)
(0.00068381 0.00118752 -2.85465e-21)
(0.000355417 0.000447842 9.61232e-26)
(0.000223522 0.000482971 -8.28027e-22)
(0.000647623 0.00115422 -9.81869e-22)
(0.000238454 6.52436e-05 4.01537e-22)
(0.000545751 0.000992336 1.21914e-22)
(0.000328183 0.000674892 1.89066e-23)
(0.000495897 0.00126093 -4.73361e-23)
(0.000574698 0.00102239 5.09024e-22)
(0.00100331 0.000204678 9.85148e-22)
(0.000307093 0.000533657 1.09136e-24)
(0.000536382 0.00131243 0)
(0.000974288 4.86979e-05 7.58278e-22)
(0.000699555 0.00117909 5.46313e-22)
(0.000175369 2.62698e-05 1.82083e-22)
(0.000348717 2.36532e-05 -9.3699e-22)
(0.000458213 0.000704145 4.06852e-22)
(8.59186e-05 4.02151e-05 -2.09986e-22)
(0.000571065 0.000561667 9.09027e-22)
(0.000355048 0.000536455 2.64313e-21)
(0.000589934 0.00106063 -5.36651e-24)
(0.000595277 0.00100457 -1.23479e-21)
(-0.000183141 0.00016829 -1.59679e-22)
(0.000747938 0.00123956 -1.30696e-21)
(0.00121203 0.000254887 -6.63995e-22)
(8.15404e-05 0.000141206 -5.91045e-22)
(0.000958026 -1.22156e-05 1.29526e-21)
(0.000594375 0.0010306 6.0412e-22)
(0.000456025 0.000797318 0)
(0.0010597 0.000204359 -1.17028e-21)
(0.000369191 0.000308217 -1.95501e-21)
(0.000441657 0.000805842 -1.5834e-22)
(0.000210933 0.00106746 0)
(0.000598558 9.8923e-05 1.27657e-21)
(0.000606405 0.00101526 4.11262e-22)
(0.000711196 0.00048602 3.8213e-21)
(0.000611621 0.00105688 4.46007e-22)
(-0.000369128 0.000166006 3.2247e-22)
(0.000572273 0.00101908 1.08942e-21)
(0.000548264 0.000983994 -1.04971e-21)
(0.000595972 0.00101129 0)
(0.000896858 2.36686e-05 0)
(0.000555416 0.000996115 -7.46566e-24)
(0.000221353 0.00035901 -8.99695e-22)
(0.000731708 0.000167695 -6.31091e-23)
(0.000425936 0.000511594 -1.69459e-21)
(0.000738165 0.00137675 1.55245e-23)
(0.000599799 0.00102735 0)
(0.000558248 0.000991527 9.35014e-22)
(9.41683e-05 0.000177353 -7.61984e-22)
(0.000372894 0.000739261 -6.12686e-23)
(0.000516139 0.000926123 5.70708e-22)
(0.000552045 0.000985396 9.64149e-24)
(0.00015838 0.000259032 -1.0893e-21)
(-8.64366e-06 0.000285087 1.34024e-21)
(2.10255e-05 -6.34612e-07 0)
(0.000810095 0.00057213 -1.44485e-24)
(0.000646269 0.00115543 7.19914e-24)
(6.5912e-07 1.06674e-05 -4.10055e-22)
(0.00159975 0.000361723 8.53693e-22)
(0.000625761 0.000106938 0)
(0.000611654 0.00106358 2.89964e-22)
(0.000596364 0.00102049 -5.26068e-22)
(0.000216393 4.76121e-05 -2.9848e-22)
(2.55816e-05 1.4704e-06 1.03877e-21)
(0.000237807 0.0010817 -1.27861e-23)
(0.000447753 0.000804547 1.24999e-21)
(0.000686636 0.00114786 3.01384e-22)
(0.000747584 0.00123839 1.20038e-21)
(0.000767577 0.00129412 1.33133e-21)
(0.000217772 -9.00224e-06 -8.52015e-22)
(0.000186096 0.000604962 -5.55626e-22)
(0.0011621 0.000147332 -4.96934e-22)
(0.000648075 0.00115496 -9.35794e-22)
(0.000467368 0.000926171 -2.66171e-21)
(0.000515509 0.000253853 -4.66785e-22)
(0.000498222 0.000998442 0)
(0.00049845 2.29797e-05 1.39226e-21)
(2.89955e-06 6.88471e-06 -3.69279e-22)
(0.000720177 0.00132322 3.34272e-22)
(0.000750185 0.00123928 -9.7514e-22)
(0.000572289 0.00102178 -1.1569e-21)
(0.000911701 0.000284219 0)
(0.000217157 0.000550276 -6.25858e-22)
(2.49314e-05 1.08882e-06 1.44464e-23)
(0.000594693 0.00105324 -2.68638e-22)
(0.000396695 0.0016498 -2.66743e-23)
(0.000299051 0.00134464 0)
(0.000331113 0.000484787 -4.00247e-25)
(0.000389457 0.00120651 -6.24658e-23)
(0.000852416 0.000342639 2.99264e-22)
(0.000511439 0.000568114 3.32889e-25)
(8.91972e-06 9.41571e-05 -5.16119e-23)
(6.34499e-05 4.20693e-05 0)
(0.000698861 0.00118054 1.02156e-21)
(5.79114e-06 3.73706e-05 -1.60908e-24)
(0.00180035 0.00061399 -1.90474e-21)
(9.34702e-05 0.000702423 0)
(0.00015198 0.000265523 -1.88002e-21)
(0.000459841 0.000816776 -3.89306e-21)
(0.00064692 0.00115361 0)
(5.32488e-05 4.3712e-05 1.51455e-21)
(0.000617134 0.00103897 0)
(0.000228544 0.000260376 -1.26878e-21)
(0.000953173 0.000189923 -9.56628e-22)
(0.000319156 -6.30849e-05 -1.53428e-21)
(0.000685202 0.00120464 -9.60119e-22)
(0.00110547 0.00018049 0)
(0.000469677 0.000270584 0)
(9.8566e-05 0.000892341 -8.55721e-22)
(0.000670269 -0.000212719 -3.08784e-21)
(0.000651341 0.00123214 3.25116e-22)
(0.000610299 0.00106599 -8.77159e-24)
(0.000574532 0.00103424 0)
(0.000775765 0.000480367 0)
(0.001166 0.000132786 1.10649e-21)
(0.00063727 0.00028778 -1.36215e-22)
(0.000579112 0.000982485 2.78992e-22)
(0.000749012 0.0012425 0)
(0.000327553 0.000290448 0)
(0.000417149 0.00099759 -1.69309e-21)
(8.01941e-05 3.57589e-05 -7.61595e-22)
(0.000519463 0.000416763 -1.04416e-21)
(0.000667182 0.00120308 -9.80927e-23)
(0.000452235 0.001351 -1.32713e-22)
(0.000509404 0.00146078 -1.86418e-23)
(0.000551881 0.000419223 7.46692e-22)
(0.000524487 0.00140769 -6.59905e-24)
(0.000431968 0.000465186 -1.39362e-21)
(0.000340629 0.000503896 2.18841e-21)
(1.52374e-05 -4.1637e-06 0)
(0.000917389 0.000714024 -9.52844e-22)
(0.000386529 0.000680579 -3.07699e-22)
(0.000609456 0.00107733 2.6748e-22)
(0.000146259 -2.24935e-05 0)
(8.15227e-06 8.22356e-05 0)
(0.000112328 0.000450791 1.7508e-21)
(0.00057223 0.00103325 4.08815e-22)
(0.000527852 0.00102176 0)
(6.45413e-05 2.77518e-05 -1.33019e-21)
(0.000165518 0.000628008 -5.16635e-22)
(0.000595464 0.0010046 6.55925e-22)
(0.00128388 0.000231361 -1.08397e-21)
(0.0003847 0.000377577 0)
(0.000848329 0.000162806 -2.26071e-21)
(0.000192448 0.000231616 -1.37079e-21)
(0.000938555 0.000646991 1.38045e-21)
(0.000755861 0.000456286 -1.90001e-22)
(0.000474522 0.000789292 -7.04679e-24)
(0.000423015 0.00103527 1.67943e-21)
(0.000190449 0.000847661 -2.78421e-23)
(0.000588313 0.00100797 -9.23943e-24)
(0.000545153 0.00100036 -1.78513e-23)
(0.000278862 0.00132134 -1.34113e-22)
(9.28025e-05 4.45783e-05 9.84397e-22)
(0.000554738 0.00102896 -3.78558e-22)
(0.000243752 0.000336488 -1.58475e-21)
(0.000943356 3.30021e-05 -6.15949e-22)
(0.000232328 0.00117971 -1.5886e-23)
(0.000210939 0.000913059 -2.62447e-24)
(0.000460509 0.000327905 -9.96009e-22)
(1.73564e-05 2.24676e-06 -2.18013e-22)
(0.000574266 0.000971013 -6.67303e-22)
(0.00014941 -1.02597e-05 -8.03372e-22)
(0.000611783 0.00106094 1.15707e-22)
(-0.0003389 0.00118551 -1.15401e-21)
(0.000572191 0.000980235 4.77697e-22)
(0.000611543 0.00105615 3.17297e-22)
(0.000610617 0.0010629 -1.16213e-22)
(0.000228009 0.000118927 -1.4899e-21)
(0.000400376 0.000704464 5.51679e-22)
(0.000350309 0.00063013 0)
(0.000252346 3.22636e-05 5.60138e-22)
(0.000946543 3.62272e-05 0)
(0.000645994 0.00115293 -6.64899e-22)
(0.000473162 0.0007873 5.97202e-22)
(0.000754637 0.000594917 1.10937e-21)
(0.000444449 0.000805747 -1.06625e-21)
(0.000214636 0.000634857 1.38368e-21)
(0.00119049 6.99254e-05 0)
(0.000301758 0.000197446 0)
(0.00107067 0.000488782 -7.64955e-23)
(0.000397954 0.000887764 1.59101e-21)
(0.000475794 0.00078943 -3.66125e-21)
(0.000631793 0.00104852 -3.28617e-22)
(0.000747673 0.00123878 -1.17772e-21)
(0.000772251 0.000488236 1.00885e-21)
(0.000489748 0.000976935 0)
(0.000680062 0.00113761 0)
(0.000326149 0.000272906 -1.04138e-21)
(0.000224968 0.000703674 -8.26426e-22)
(0.000807033 0.000343755 1.95649e-21)
(1.46635e-05 -6.58671e-06 2.5761e-22)
(7.04102e-05 3.32736e-05 7.34173e-22)
(0.000554773 0.000973857 -9.30062e-24)
(0.000133573 -2.34763e-05 4.64442e-22)
(0.000404175 0.000337854 9.46077e-22)
(-0.000141252 0.000164344 0)
(1.60975e-05 0.000289929 1.14442e-22)
(5.90536e-05 4.35924e-05 0)
(0.000677936 0.00113417 0)
(0.000630106 0.000490122 3.81637e-22)
(0.000572242 0.000979813 -4.60112e-22)
(0.000198309 0.000173759 -3.17353e-21)
(0.000677802 0.00113316 1.13635e-21)
(0.000678855 0.00125383 -6.82054e-23)
(0.000624843 0.0010104 7.02338e-22)
(0.000674541 0.000366893 0)
(0.000652281 0.00123475 1.30135e-22)
(0.000563115 0.0009719 0)
(0.000722202 0.00132263 -4.09256e-22)
(0.000571944 0.00101979 2.23859e-21)
(9.90189e-05 0.000262388 1.34075e-24)
(0.00070211 0.00126606 1.28616e-21)
(0.000945937 0.000112279 0)
(3.84925e-05 0.000389175 -4.19465e-22)
(0.000503141 0.000563939 5.25903e-22)
(0.000557826 0.000973812 1.19343e-21)
(0.000332948 0.000932227 -6.2204e-21)
(-0.000504172 0.000836024 2.17729e-22)
(3.82007e-05 6.02571e-05 -1.56321e-21)
(0.000604943 0.0010538 -1.82635e-22)
(0.000470491 0.000917929 3.45489e-21)
(0.000667599 0.00119925 -2.90561e-22)
(0.000706825 0.00127189 -1.27573e-21)
(0.000558527 0.000990411 9.17786e-22)
(0.000959417 8.35643e-05 -7.8682e-22)
(0.000611375 0.00105966 1.25944e-22)
(0.000210214 0.000139118 2.43806e-21)
(0.000659268 0.00117201 4.51705e-22)
(0.000463854 0.000772289 1.51514e-21)
(0.000162413 0.000577661 1.08203e-21)
(0.000700083 0.0012638 1.25606e-21)
(0.000583917 0.00097623 -3.81143e-23)
(0.000568293 0.00102315 8.29372e-23)
(0.000960778 8.65766e-05 0)
(4.0813e-05 0.000557581 -3.95208e-22)
(0.000402699 0.000838096 1.32165e-21)
(0.000615236 0.00101595 6.41039e-24)
(0.000610677 0.000354947 -4.34259e-21)
(0.00113495 8.58201e-05 0)
(0.000641591 0.00121759 -3.41109e-22)
(0.00017617 -0.000123067 1.2091e-21)
(0.000945484 7.63795e-05 0)
(0.000684514 0.00119484 -4.89854e-22)
(0.00100501 -0.000146313 -2.17239e-21)
(9.9753e-05 4.96482e-05 -3.88075e-22)
(0.0010942 0.000344577 1.77809e-25)
(4.13582e-05 0.000428175 1.349e-22)
(0.000699976 0.00126209 0)
(0.000968081 0.000332724 7.54023e-22)
(0.000694582 0.000242948 0)
(0.000326186 0.000464177 0)
(0.000428867 0.000349004 0)
(9.28736e-05 -3.85905e-05 -1.82111e-21)
(0.000644169 0.0011527 -7.16767e-22)
(0.0012891 0.000547555 -3.48264e-21)
(0.000772125 0.00131931 3.73388e-22)
(0.000301863 0.000161629 -4.35553e-22)
(0.000485103 0.000986594 -1.17872e-21)
(0.000117712 -4.18225e-05 0)
(0.00104999 0.000184336 5.8184e-22)
(0.00082825 0.000539525 2.72912e-22)
(3.32068e-05 5.09063e-05 8.69636e-22)
(0.000691055 0.00116955 2.77747e-22)
(0.000212368 0.00112658 0)
(0.000359311 0.00139687 5.29843e-23)
(0.000735694 0.00134964 -1.16901e-21)
(0.000699943 0.00126068 1.22005e-21)
(0.00061874 0.0010485 0)
(0.000382085 0.000674457 9.46952e-22)
(1.99482e-05 0.000315223 5.13028e-22)
(0.000176438 -0.000103462 1.52617e-21)
(0.000555507 0.000994434 -1.12308e-21)
(0.000832098 0.00109321 8.02307e-22)
(0.000635264 0.000710981 -2.70629e-22)
(0.000698365 0.00117932 6.70974e-22)
(0.00073113 0.00131675 -1.20655e-21)
(9.72491e-05 -4.65015e-05 1.80277e-21)
(0.000646476 0.00115095 -3.2426e-24)
(0.000437291 0.000803742 0)
(0.000654118 0.000387355 5.14515e-22)
(5.69012e-05 4.9748e-05 0)
(0.00103767 2.45574e-06 7.05511e-22)
(0.000405244 0.000668798 1.08312e-21)
(0.000225876 0.000423959 9.96666e-23)
(0.00056699 9.92994e-05 -2.02816e-23)
(0.000366396 0.000511801 -3.14797e-21)
(0.00133807 0.00028153 2.26176e-22)
(0.00097528 0.000197568 -8.86521e-23)
(0.000515894 0.000550134 2.73649e-21)
(0.000499159 0.00105492 0)
(0.000375809 0.000619899 -4.15175e-22)
(0.000353736 0.000890847 0)
(0.000342877 0.00114848 9.63852e-22)
(0.000784111 0.00129648 8.34461e-22)
(0.000784054 0.000599972 1.10238e-21)
(0.000459171 0.00123836 -5.84461e-23)
(0.00041963 0.000324271 0)
(0.000202777 0.000199855 0)
(0.000147245 -9.83221e-05 -1.49127e-22)
(0.000178184 0.00036463 5.62244e-22)
(0.000263845 0.000614604 -3.02671e-22)
(0.000166081 0.00061338 0)
(0.000706626 0.0012845 -9.74614e-24)
(0.000554917 0.000982059 0)
(0.000548761 0.00100007 -9.10293e-22)
(0.000456447 0.000820588 4.95328e-22)
(0.000211738 0.000567299 -7.37069e-22)
(0.000644296 0.00115 -8.29815e-22)
(0.000416246 0.000829318 1.29825e-21)
(0.000933675 8.28061e-05 1.00266e-21)
(0.000193506 4.36452e-05 1.68221e-22)
(2.16057e-05 2.14059e-06 -3.90281e-22)
(0.000124337 -0.000188102 0)
(0.000315916 0.000544714 9.39448e-22)
(7.93554e-05 0.000587698 1.54707e-21)
(0.000476426 0.000112643 2.12444e-21)
(0.000434424 0.000301325 0)
(0.000170166 0.000322245 2.52986e-21)
(0.000678673 0.00113176 -1.42251e-22)
(0.00046768 0.0007784 2.08534e-21)
(0.000711208 0.00130787 5.66659e-24)
(0.000333777 0.000201211 0)
(0.000218641 1.45082e-05 2.10387e-22)
(0.000570555 0.000377287 0)
(0.00061028 0.00107059 -1.94378e-22)
(0.000194577 4.63597e-05 0)
(0.000430738 0.0005306 1.77477e-22)
(0.00101836 0.000377533 8.67373e-23)
(0.000577699 0.000985419 -5.50327e-22)
(0.00068793 0.00119983 7.89664e-23)
(0.000369367 0.000567655 -1.08276e-21)
(0.000474081 0.000929944 8.96087e-22)
(0.000380307 0.000688046 -7.56088e-22)
(0.000221522 0.000556866 -1.06697e-21)
(0.00017237 3.88382e-06 0)
(0.00010595 0.000653771 1.4331e-21)
(0.000525708 0.000995433 0)
(0.000854359 0.000278306 1.60163e-21)
(0.000329431 0.000477956 1.27418e-21)
(0.000747036 0.00123931 -1.24393e-21)
(2.26952e-05 3.15433e-05 1.08973e-22)
(0.000476546 0.000888461 -2.23153e-22)
(0.000129849 -3.98251e-05 -8.88966e-23)
(0.000428569 0.000792562 -1.3766e-22)
(0.000768072 0.000576514 0)
(0.000968926 -5.44e-05 -9.46298e-23)
(0.000689604 0.00119256 -2.513e-22)
(0.000834747 -0.00035942 9.26243e-24)
(0.000770807 8.23424e-05 2.02009e-21)
(0.00119618 0.000625464 -2.03336e-21)
(0.000551211 0.00098895 0)
(0.000388224 0.00069623 -1.02247e-21)
(0.00074626 0.00124049 -1.4243e-21)
(0.00046129 0.00077122 7.2366e-24)
(0.000491282 0.000682473 1.15726e-21)
(6.03167e-05 0.000567868 4.74114e-21)
(0.000955291 0.000276323 3.30387e-22)
(0.000191129 0.000244072 0)
(0.000636497 0.00106942 -1.19941e-21)
(0.000313327 0.000145254 0)
(0.000205332 0.000475429 5.56216e-22)
(0.000673845 0.00113628 2.58231e-22)
(0.00101294 6.49018e-05 -4.37385e-22)
(0.000425612 0.00092166 2.10435e-21)
(0.000623205 0.00106695 2.2627e-22)
(0.000393732 -7.34517e-05 -7.58554e-22)
(0.000168864 9.4988e-05 4.69889e-22)
(1.67676e-05 0.000233434 -1.32122e-21)
(4.25281e-05 0.00103262 1.30918e-21)
(0.000148879 1.08926e-06 -7.51858e-22)
(0.000466432 0.00077523 -7.31475e-22)
(0.000144366 7.70379e-05 -4.36605e-22)
(0.00062176 0.00110081 -6.20395e-23)
(0.000291921 0.000353686 -6.02977e-22)
(0.000496727 0.00118749 0)
(0.000236209 -5.83213e-05 -1.80311e-21)
(0.000901839 -9.71195e-06 4.58176e-22)
(0.000572029 0.00101721 2.14397e-21)
(0.000170603 5.68711e-05 -2.1812e-21)
(0.000701154 0.00126931 -1.27603e-21)
(0.00107525 9.44991e-06 -9.09777e-22)
(0.000280195 0.000162844 2.17688e-22)
(0.00050549 9.49788e-05 0)
(0.000615766 0.00104748 1.07294e-21)
(0.000501911 0.000882813 3.08684e-22)
(0.000162856 0.000643117 3.8515e-22)
(0.000812855 0.000542687 0)
(0.000729468 0.000588678 2.74681e-21)
(9.9339e-05 -1.20315e-05 -8.25069e-22)
(0.00138146 0.000344482 -2.60365e-22)
(0.000599893 -5.3236e-06 -1.45293e-21)
(0.00119606 0.000248107 5.17631e-22)
(0.000667126 0.00119762 0)
(0.000274467 0.000557752 0)
(0.000639701 0.00112386 9.17729e-23)
(0.000646808 0.00115506 5.64009e-22)
(0.000623502 0.00120759 -2.34393e-22)
(0.000896246 0.00133993 1.13136e-21)
(0.000502877 0.00125488 1.18213e-21)
(0.000638477 0.000337493 6.69369e-22)
(0.000539379 0.00105878 0)
(0.000577456 0.00109607 -2.75789e-23)
(0.000437655 2.57867e-05 5.21531e-22)
(0.000760667 0.000525233 -1.93137e-22)
(0.000180395 6.78123e-05 1.07367e-25)
(0.0002375 -0.000189269 1.59648e-21)
(0.000231932 0.000620701 5.50975e-22)
(0.000176271 0.000425769 9.45038e-22)
(0.000287542 0.000463907 2.29389e-21)
(0.000340501 0.000555422 -1.45729e-21)
(0.000311506 0.000569076 -5.04362e-22)
(0.000186206 0.000648763 -9.13962e-22)
(9.97276e-05 -1.77102e-05 1.80329e-25)
(5.36523e-05 0.000642002 -2.55258e-21)
(0.000415112 0.0011831 0)
(0.000638049 0.00113171 0)
(0.000703373 0.00055197 0)
(0.000569643 0.00046671 1.95049e-21)
(0.000680984 0.0011893 4.33406e-22)
(0.00080599 0.000534179 2.99278e-21)
(0.00104567 0.000336597 0)
(0.000300162 0.000336446 3.0318e-22)
(0.000171536 0.000615567 6.95477e-22)
(0.000571768 0.000978714 8.99281e-22)
(4.49467e-05 3.48133e-05 0)
(0.00090485 2.74332e-05 -1.38494e-21)
(0.000139271 0.000403101 7.79601e-22)
(0.000792633 0.000542051 -3.77523e-22)
(0.000325604 0.000534147 3.46179e-22)
(0.000349755 0.000365705 1.52445e-21)
(0.000597424 0.00110156 0)
(6.31727e-05 2.86509e-05 2.05874e-22)
(0.000144633 -8.10696e-05 -1.85752e-22)
(0.000708829 0.00133056 3.36186e-22)
(0.000643237 0.00111511 -5.64463e-22)
(0.000577614 0.000985617 4.10363e-22)
(0.000631815 0.00111962 4.41811e-22)
(0.000972243 2.63022e-06 -2.68794e-22)
(0.000218403 0.000620671 0)
(0.000386892 7.35824e-05 -1.7308e-21)
(0.000748024 0.00124914 0)
(0.000986787 0.00011546 0)
(0.000654608 0.00117129 -1.69815e-22)
(0.000357166 0.000860993 -1.3151e-21)
(0.000725194 0.00134238 -6.78236e-23)
(6.80154e-07 8.57668e-06 -4.0893e-22)
(0.000320495 0.000476285 -1.61415e-21)
(0.000100333 -1.85576e-06 -2.20417e-21)
(0.000638117 0.00113066 1.67343e-22)
(0.000176451 0.000480294 -5.78939e-22)
(0.000169105 0.000524148 7.98793e-22)
(0.000731485 3.09946e-05 1.44978e-21)
(0.000511468 0.00105572 0)
(0.00100808 0.000313466 5.11572e-22)
(0.0007118 0.000995167 1.00168e-22)
(0.000309916 0.000500444 1.10587e-21)
(0.000116035 -4.96875e-05 -2.55245e-23)
(0.000511558 4.6881e-05 1.53991e-24)
(0.000334846 0.00037967 -2.93413e-21)
(0.000316308 0.000453873 1.31352e-21)
(9.80744e-05 7.26085e-06 -1.01166e-21)
(0.000245996 0.000384083 -2.79871e-21)
(0.000758106 0.00128569 -1.68299e-21)
(0.000644838 0.00115217 1.41337e-21)
(0.000342038 0.000527157 -1.0554e-21)
(0.000646963 0.00115477 -5.67285e-22)
(0.000706566 0.000209359 -6.30244e-22)
(0.000276152 -0.000157117 -2.73335e-21)
(0.000325227 0.000521154 -2.01005e-21)
(0.00067523 0.0011327 1.07739e-21)
(0.00122822 0.00018883 -9.94976e-23)
(0.000697838 0.00118067 4.41374e-22)
(0.000177385 0.000136401 -1.03377e-21)
(0.000563232 0.000954917 6.0913e-22)
(0.000633658 0.00111859 -1.39683e-22)
(0.000564803 0.001072 -1.52707e-23)