/*--------------------------------*- C++ -*----------------------------------*\
  =========                 |
  \\      /  F ield         | OpenFOAM: The Open Source CFD Toolbox
   \\    /   O peration     | Website:  https://openfoam.org
    \\  /    A nd           | Version:  7
     \\/     M anipulation  |
\*---------------------------------------------------------------------------*/
FoamFile
{
    version     2.0;
    format      ascii;
    class       volVectorField;
    location    "32.5";
    object      U;
}
// * * * * * * * * * * * * * * * * * * * * * * * * * * * * * * * * * * * * * //

dimensions      [0 1 -1 0 0 0 0];

internalField   nonuniform List<vector> 
591
(
(0.00080916 -4.32443e-05 1.22229e-18)
(0.000787548 -3.49622e-05 -6.62955e-19)
(0.000851365 -5.6939e-05 5.72614e-20)
(0.00083845 5.56181e-06 -1.48135e-19)
(0.000822624 1.72481e-05 2.24129e-19)
(0.000782004 -3.47201e-05 -1.38466e-19)
(0.000540019 -0.000374766 8.02569e-19)
(0.000795709 -3.5114e-06 2.07671e-18)
(0.00576486 0.00248891 9.88145e-19)
(0.000783748 -1.89565e-05 2.4192e-18)
(5.78635e-05 0.000177865 1.21897e-18)
(0.00089556 0.00131842 9.40976e-21)
(0.000790592 1.05182e-05 1.28963e-18)
(0.00157176 0.00236692 -7.87959e-19)
(0.000798568 1.54622e-05 -4.38431e-19)
(0.000118846 -0.00024922 2.55958e-22)
(0.000132011 0.000669613 7.0581e-19)
(0.000829518 2.62017e-05 -4.9161e-19)
(0.00197394 0.000374838 4.73568e-19)
(0.00134636 0.000275682 -2.47352e-19)
(0.000830265 8.08364e-06 3.70108e-19)
(0.00339784 0.00656499 -8.12204e-20)
(3.48741e-05 7.58467e-05 2.71223e-19)
(0.000824236 4.55821e-06 -4.51734e-19)
(1.73282e-05 -2.21149e-05 3.59261e-19)
(0.000756562 2.57081e-05 0)
(9.00975e-05 0.000480206 1.60112e-19)
(0.000516957 2.87057e-05 -1.79051e-19)
(0.000745413 5.32701e-05 1.14234e-18)
(0.000821329 1.58142e-05 5.82288e-19)
(6.63018e-05 -1.20815e-06 -3.14842e-24)
(4.471e-05 -5.32491e-05 3.52579e-19)
(4.53282e-05 -4.07036e-06 -4.64447e-20)
(5.39248e-05 -1.02754e-05 0)
(6.22659e-05 -1.44452e-05 1.13234e-18)
(0.00116526 0.000128367 1.80128e-19)
(3.91785e-05 -7.05361e-06 4.47655e-20)
(0.000822969 1.65731e-05 3.72083e-23)
(3.36099e-05 5.03287e-05 2.66327e-19)
(5.31216e-05 -0.000142827 -8.55802e-19)
(0.000565354 -0.000190927 9.58709e-19)
(3.23973e-05 -9.2068e-06 4.5534e-20)
(0.000791664 -6.43893e-06 -1.56181e-18)
(0.000821677 2.13865e-05 -6.80857e-19)
(2.32137e-05 -1.10787e-05 0)
(6.22836e-05 1.05374e-05 8.52824e-20)
(0.00132512 0.00451683 8.93811e-19)
(8.44836e-05 2.22699e-05 8.64578e-20)
(0.000791978 2.54187e-05 0)
(0.000366817 -0.000152216 6.78625e-19)
(0.000371063 0.000280182 5.12442e-21)
(0.000385002 7.06888e-05 -1.00493e-18)
(0.00634663 0.0109398 -7.68823e-19)
(0.00622546 0.0107955 1.53351e-20)
(0.00561197 0.0103774 1.45702e-18)
(0.000808114 -6.21058e-06 0)
(7.36241e-05 3.71951e-05 0)
(0.000323006 3.16884e-05 8.48595e-24)
(7.08491e-05 1.4885e-05 -3.46843e-19)
(0.00082795 -5.41712e-06 0)
(0.000611428 2.67324e-05 3.17948e-19)
(0.000814816 -1.30061e-06 2.19702e-18)
(0.000776461 4.91914e-06 -5.42667e-19)
(0.000786595 1.92579e-05 -3.12711e-19)
(0.00171588 0.000494837 5.43974e-19)
(0.000785203 -4.52129e-07 -1.1422e-18)
(0.000815071 -2.11687e-06 -5.20987e-19)
(9.2424e-05 3.0564e-06 -1.73603e-19)
(0.0006749 0.00229744 0)
(0.000816805 1.73939e-05 0)
(0.000753613 1.72819e-05 -1.37714e-18)
(4.33226e-05 1.93797e-05 0)
(0.000281894 0.000276664 3.27178e-19)
(4.96002e-05 -2.00816e-05 0)
(4.96153e-05 -6.84552e-06 1.59651e-19)
(3.03386e-05 -5.50681e-05 -3.37058e-20)
(0.000768181 6.4184e-05 2.47398e-19)
(5.02326e-05 1.36949e-05 0)
(0.000784143 5.71615e-05 4.44436e-19)
(0.000751215 0.000299152 2.10963e-19)
(0.000962461 5.95402e-05 -3.98439e-20)
(4.84501e-05 2.74432e-05 -4.52366e-20)
(7.32046e-06 -3.98268e-05 0)
(0.000421005 0.000223972 1.70365e-19)
(2.37109e-06 3.25839e-05 0)
(0.000760144 2.22208e-05 -6.07206e-19)
(0.000561773 -0.000115362 0)
(7.38613e-05 2.07593e-06 -1.74672e-19)
(5.58668e-06 -5.34327e-05 0)
(0.00081037 0.000247993 -3.41663e-19)
(5.18382e-06 -2.46345e-05 0)
(0.000414277 0.000324516 -1.24874e-23)
(0.000511222 0.000116792 0)
(0.000792834 4.91881e-05 -9.97207e-25)
(3.08212e-06 2.17486e-05 -4.22184e-20)
(0.00043533 5.31851e-06 1.7656e-18)
(0.00101982 7.40157e-05 4.16547e-20)
(0.000933662 3.91592e-05 6.41198e-22)
(0.000725092 0.000654136 2.69783e-19)
(5.15521e-06 6.33253e-05 0)
(7.90917e-06 -9.84247e-05 -3.12726e-19)
(1.12707e-05 -0.000183165 -1.10146e-18)
(1.94178e-06 9.83657e-05 -5.9659e-19)
(0.000694426 -7.88364e-06 0)
(5.31373e-06 0.000125289 0)
(0.000791775 8.78928e-06 2.22544e-18)
(0.000764473 2.23714e-05 1.51441e-18)
(0.000401636 -4.02324e-05 0)
(5.16268e-05 0.00023072 -8.95769e-19)
(-1.56593e-06 0.000200448 4.96618e-19)
(7.78911e-05 0.000456887 6.25705e-19)
(0.0002955 0.000107109 -9.38048e-19)
(0.000805076 1.43813e-05 1.36366e-19)
(0.00026606 -1.0667e-05 5.31815e-19)
(3.28177e-06 4.45392e-05 0)
(3.51856e-05 0.00031307 -1.09451e-18)
(0.000313338 0.000329208 -1.61867e-19)
(7.51877e-06 -7.50531e-05 1.4676e-19)
(0.00065668 0.000795549 0)
(0.000359216 0.000392354 5.74998e-20)
(0.000803406 9.04087e-07 1.07217e-18)
(0.000783424 -9.72717e-06 -2.68789e-18)
(9.21704e-06 -0.000127099 0)
(0.000729627 -1.92604e-05 -1.12463e-19)
(0.000318812 -6.71579e-05 1.24468e-18)
(0.00269423 0.000795182 -3.36087e-19)
(-1.16443e-07 0.000157005 -6.13434e-19)
(-6.97147e-06 0.000193118 1.62003e-18)
(0.000809863 1.85226e-05 -3.89466e-20)
(7.25331e-05 -8.46877e-06 -7.51009e-19)
(0.000785087 2.67878e-05 -3.89428e-19)
(0.0008585 2.76166e-05 -4.10251e-20)
(5.55134e-05 0.000365772 -5.97129e-19)
(0.000469169 8.19927e-05 -4.94471e-19)
(5.69569e-05 -2.15949e-06 1.56329e-19)
(0.000817747 1.16376e-06 -1.07667e-18)
(0.00161317 0.000212344 -1.13756e-18)
(1.6503e-06 7.75312e-05 4.9666e-19)
(0.000799013 4.09317e-06 -4.98765e-19)
(0.000884252 0.000539513 -7.85945e-20)
(0.000131399 0.000836135 0)
(0.000558527 6.77456e-05 0)
(0.000270732 6.37313e-05 -1.61146e-18)
(6.82574e-05 6.49812e-05 -1.3756e-18)
(3.50819e-05 2.4058e-05 0)
(0.00425229 0.00741601 -1.01625e-20)
(0.00423089 0.00738282 3.18471e-20)
(0.00443338 0.00758315 -5.09752e-21)
(0.00420822 0.00773689 0)
(0.00420089 0.00760107 5.77813e-19)
(0.00424982 0.00741403 -9.24959e-20)
(0.0042113 0.00804485 4.84763e-19)
(0.00428537 0.00742255 0)
(0.00420767 0.00854072 6.1722e-19)
(0.00432276 0.00744387 2.21025e-19)
(0.0008058 -3.40263e-06 -1.37118e-18)
(0.000751471 5.07056e-05 0)
(0.000218457 6.87739e-05 1.27824e-19)
(5.6405e-05 1.97678e-05 8.72816e-20)
(8.37229e-05 5.16313e-05 6.80768e-19)
(0.000112804 4.92686e-05 -3.42042e-19)
(0.000108351 1.3286e-05 0)
(5.49834e-05 7.39931e-06 8.19231e-20)
(0.000204468 0.000144843 0)
(0.000171407 5.67438e-05 -5.24818e-20)
(0.000336144 0.000230785 -5.09778e-21)
(6.06927e-05 4.87584e-05 -4.38139e-19)
(9.74979e-05 3.47376e-05 -8.53413e-20)
(9.56937e-05 6.93758e-05 1.31337e-21)
(0.000248011 0.000371861 -6.66845e-19)
(0.000130454 0.00105488 0)
(4.6215e-05 5.80767e-05 3.4344e-19)
(0.000196062 0.00179782 0)
(0.000206306 0.000260266 7.05386e-19)
(4.47568e-05 -5.57539e-06 1.11459e-19)
(0.000467932 0.000169948 -1.72484e-19)
(0.000746424 2.89797e-05 -1.90397e-18)
(4.91673e-05 -1.97006e-07 4.10754e-24)
(0.000156121 3.61984e-05 2.24831e-19)
(0.000239869 0.000106798 -9.003e-20)
(0.000874133 0.000707928 3.35276e-19)
(0.000748877 0.00161837 -9.22035e-21)
(0.000382726 0.00140514 -9.43453e-21)
(0.00101309 0.000558955 0)
(0.000112965 -1.0731e-05 1.12e-18)
(0.000125103 2.62551e-05 -4.4364e-20)
(0.000425355 -0.000260336 -1.13693e-18)
(0.000801376 3.02682e-05 0)
(0.000185136 2.41316e-05 3.63676e-19)
(0.000295327 0.00134114 0)
(0.00103766 0.000752774 -7.30951e-20)
(0.000819164 4.07122e-05 -1.84717e-19)
(8.92794e-05 -1.84316e-05 -3.00327e-19)
(0.000807637 0.000314132 -2.08283e-20)
(7.24756e-05 -2.20842e-05 -6.0019e-19)
(0.000226239 0.000183714 8.64774e-20)
(0.000226275 0.00031284 -3.45366e-19)
(0.000869939 0.000238747 0)
(0.000794672 4.60933e-05 0)
(0.000259171 0.000150914 1.77033e-19)
(0.000234972 1.88143e-05 1.70165e-24)
(0.000184794 0.000213471 0)
(0.000282172 0.000649109 -5.56149e-21)
(0.000331849 1.73746e-05 0)
(0.000342447 0.000599277 0)
(0.000114468 9.1311e-05 -1.34817e-21)
(0.000809452 3.87576e-06 -9.3868e-19)
(0.000813781 5.26454e-07 7.81126e-19)
(0.000134046 6.80162e-05 -1.50019e-19)
(0.000939201 0.000152464 8.51798e-20)
(0.000823481 4.8442e-05 3.32924e-19)
(0.000797735 1.65236e-05 -2.95262e-19)
(0.000993356 0.00040353 0)
(0.000427168 0.000127877 6.25129e-19)
(0.000881689 0.000315765 2.09375e-20)
(0.000555725 0.000164492 0)
(0.000272952 0.000442003 4.10047e-19)
(0.000258696 0.000226042 -8.45052e-20)
(0.00109188 0.000378171 -7.82866e-19)
(0.000599097 0.000114604 -1.79499e-19)
(0.000790706 7.79831e-05 -7.44613e-21)
(0.000822973 2.67903e-05 9.35224e-20)
(0.000103509 -9.11293e-05 -1.98355e-18)
(0.000725846 0.000380412 2.19468e-19)
(0.000643834 6.48508e-05 2.30828e-20)
(0.000690515 0.000275195 1.55671e-23)
(0.000713911 0.000450643 -4.09945e-19)
(0.000831567 3.95452e-05 8.96364e-20)
(7.6449e-05 8.86104e-05 0)
(0.000640642 0.000416618 -4.66153e-20)
(0.000185174 0.000108156 0)
(0.00036815 0.000505258 -2.6509e-19)
(0.000309385 0.000178262 0)
(0.000659703 0.000202874 3.55634e-19)
(0.000632558 0.000266059 -4.3774e-20)
(8.32902e-05 0.000109632 6.19835e-19)
(0.000870467 0.000107281 -1.63541e-18)
(6.40302e-05 2.66573e-05 2.57477e-19)
(0.00086901 5.08054e-05 -1.65798e-18)
(0.000816703 7.19716e-05 1.61787e-19)
(0.000795411 1.67728e-05 1.9318e-18)
(0.000792281 1.43175e-05 -1.31509e-19)
(0.000709559 7.4485e-05 0)
(0.000809905 3.32803e-05 8.79133e-19)
(0.000932659 0.000233247 -4.27607e-19)
(0.0007506 8.0028e-05 -4.83618e-19)
(0.000764967 0.000226878 -8.82256e-20)
(0.000237203 -0.000119152 -2.08157e-18)
(0.000719843 9.01574e-05 8.88014e-19)
(0.000631586 0.000595078 0)
(0.000124187 -0.000101809 0)
(0.00118793 0.000467741 4.97687e-19)
(0.000753487 -9.44431e-05 -3.23473e-18)
(0.00130367 0.000425661 5.76269e-19)
(0.00125376 0.000713065 -6.39924e-20)
(0.000790285 4.73981e-05 -2.10842e-19)
(0.000819282 7.25035e-05 -1.42064e-18)
(0.000807704 1.96398e-05 1.57242e-18)
(0.000804037 2.28389e-05 9.68544e-20)
(0.000661899 0.000345005 -4.40883e-20)
(0.00010615 0.000136943 8.9758e-24)
(0.000720013 -6.09518e-05 2.65396e-19)
(0.000244023 -0.000207363 -7.37133e-19)
(0.000604474 0.000190853 0)
(0.000681322 2.60563e-05 9.91541e-20)
(0.000659019 9.40081e-06 -3.81263e-19)
(0.000378869 0.000179076 3.93691e-20)
(0.00078346 0.00049816 -1.65646e-19)
(0.000154492 8.70095e-05 2.51578e-25)
(0.00080164 0.000395332 0)
(0.000960561 0.00032202 4.16257e-20)
(0.000729654 -9.60085e-05 -6.17e-19)
(0.000339061 0.00011511 4.98213e-19)
(0.000891567 0.000419048 0)
(5.48063e-05 3.61146e-05 1.33859e-19)
(0.000468926 0.000273048 2.14176e-19)
(0.000450747 -0.000101969 -7.09968e-19)
(0.000176092 -0.000136066 -1.0602e-18)
(0.000808006 1.3251e-05 -4.76127e-19)
(0.000799864 -0.000112936 -1.93502e-19)
(0.000564886 0.000721204 -1.17558e-18)
(0.000830646 4.69928e-05 -6.66714e-20)
(0.0007325 -3.63203e-05 1.26081e-18)
(0.000669867 9.86359e-05 2.28051e-20)
(0.000513447 0.000217784 -1.65859e-19)
(4.06627e-05 -2.49738e-05 -8.76796e-20)
(0.000191315 -2.67671e-05 2.40873e-18)
(2.86172e-05 9.63379e-07 -1.95025e-19)
(0.000790987 9.36213e-05 3.61542e-19)
(0.000636702 0.000139908 0)
(0.000202123 -5.6112e-05 -1.0492e-18)
(0.000130623 -3.29419e-06 3.13185e-19)
(0.000129445 -3.16161e-05 -3.80145e-25)
(0.000781698 0.000114364 -3.18869e-19)
(0.000159721 -4.23874e-06 0)
(0.000570202 0.000243993 0)
(0.000111257 0.000338739 -3.63222e-19)
(0.000845512 0.000100886 2.10097e-18)
(2.33041e-05 1.67427e-06 0)
(0.000851091 4.12365e-05 0)
(5.29986e-05 -2.6724e-05 0)
(0.000811075 2.96285e-05 -4.43559e-21)
(0.00080471 -6.41648e-05 0)
(0.0042581 0.00741516 8.0792e-20)
(0.00435994 0.00748311 1.45062e-19)
(0.00084016 5.85986e-06 0)
(0.000758197 -5.78793e-05 8.13672e-19)
(0.000154042 0.000135203 1.49366e-19)
(0.000843912 7.56317e-05 7.94832e-19)
(0.000134217 0.000111829 2.34648e-20)
(0.000756141 -4.59279e-05 6.26984e-19)
(4.0039e-05 1.20711e-05 0)
(3.60909e-05 -1.67622e-05 -4.4898e-20)
(0.000872209 5.32932e-05 -4.85797e-19)
(4.47383e-05 -3.57543e-05 -6.70443e-19)
(0.000739419 0.000119668 -4.23459e-20)
(0.000167855 0.000172324 -1.88296e-19)
(0.000808678 1.46403e-05 0)
(0.00468286 0.00815414 9.07006e-22)
(0.000165735 0.000782783 3.34078e-19)
(0.0001351 -4.82685e-05 -9.15517e-19)
(7.3385e-05 -3.5223e-05 -1.17e-18)
(0.000746654 1.82849e-05 1.89936e-20)
(0.000570918 0.000414192 0)
(0.000402517 0.000435277 -2.5659e-19)
(0.000108161 -5.23966e-05 1.1849e-18)
(0.000704724 3.09015e-06 7.67564e-20)
(4.81165e-05 2.57528e-06 4.0751e-19)
(0.000654353 -5.98002e-05 1.17307e-18)
(0.000805373 2.75582e-05 -5.98199e-19)
(8.63284e-05 -5.50509e-05 1.71091e-18)
(0.000836481 -1.34257e-06 -3.40533e-24)
(0.000722426 1.02077e-05 -3.76987e-20)
(0.000854278 5.80873e-05 0)
(0.00080969 3.44052e-05 0)
(0.00592717 0.00724007 2.58865e-19)
(2.997e-05 5.23966e-07 -1.19687e-19)
(0.000169617 -7.98846e-05 7.73705e-19)
(0.000708539 0.000121183 -6.97275e-19)
(3.41486e-05 -7.38768e-07 2.01667e-19)
(0.000576115 -2.41588e-05 -7.24687e-19)
(0.00072285 2.45224e-05 1.55361e-18)
(0.000687738 0.000155066 -3.5584e-19)
(0.000803968 -1.9867e-05 3.5457e-19)
(9.41434e-05 -2.93637e-05 1.11728e-18)
(0.000783198 9.04413e-06 -3.19823e-19)
(0.000851972 4.94278e-05 0)
(0.000527678 0.000302738 4.21468e-20)
(0.000839741 4.3866e-05 -9.32149e-19)
(2.98905e-05 -3.20752e-08 9.11883e-19)
(0.00082983 4.00704e-05 9.41106e-19)
(0.000838976 -1.57051e-05 -9.61863e-19)
(0.000709477 7.34803e-06 -5.69679e-19)
(0.000487644 -5.2255e-05 -5.26265e-19)
(0.00432914 0.00744871 2.46383e-19)
(0.00422818 0.00753317 -2.62773e-19)
(0.00422299 0.00758921 2.67971e-19)
(0.0042591 0.00742329 1.98256e-19)
(0.000843646 -5.77298e-06 1.43157e-19)
(0.00447473 0.0075072 0)
(0.00440162 0.00751524 -3.85978e-19)
(4.42209e-05 -2.82338e-07 -9.97714e-19)
(0.00417163 0.00747379 -6.34558e-20)
(0.00414578 0.007434 -2.22085e-19)
(0.00602818 0.010604 0)
(0.00653903 0.0111835 3.7286e-20)
(0.00600799 0.0105738 0)
(0.00655661 0.0112061 1.31247e-19)
(0.00599477 0.0105975 2.69982e-19)
(0.0065973 0.0112234 1.25123e-20)
(0.00593328 0.0106108 -7.77462e-19)
(0.00662973 0.0111427 8.18101e-21)
(0.00390209 0.00920479 -1.91102e-19)
(0.00418944 0.00749388 3.80976e-21)
(0.00424167 0.00755679 7.93997e-20)
(0.00415154 0.00743705 4.13042e-20)
(0.000851647 0.000179591 4.47273e-20)
(1.69538e-05 2.34838e-06 0)
(0.000658426 -0.00015001 0)
(0.000720246 3.49659e-05 0)
(0.00244036 0.00110991 4.18966e-21)
(0.000736307 -2.63646e-05 1.71246e-19)
(4.66657e-05 7.74133e-06 4.54566e-20)
(1.9242e-05 -3.29732e-05 1.65428e-18)
(0.000837971 2.2586e-05 0)
(3.22882e-05 1.55096e-05 -1.91941e-19)
(0.000144598 0.000231071 0)
(3.04857e-05 -1.30124e-06 0)
(2.52717e-05 -1.96964e-06 0)
(0.00079826 0.000124593 1.13391e-20)
(0.000812466 -2.94372e-06 1.77774e-19)
(3.35239e-05 0.000308858 -1.04603e-23)
(0.000161147 0.000278195 -1.84384e-18)
(0.000591856 0.000337559 -8.5791e-20)
(0.00088832 0.000128748 6.0274e-19)
(0.0007067 -0.000379136 6.70718e-19)
(0.00033107 0.00111449 0)
(0.000454755 0.000560715 2.71752e-18)
(9.60275e-05 0.000153823 -1.80332e-18)
(3.63625e-05 4.63888e-07 0)
(0.000821431 -3.11727e-05 3.61078e-20)
(2.03312e-05 4.28072e-05 1.64631e-18)
(0.000896991 2.61297e-05 2.71599e-19)
(4.85931e-05 -0.000156199 3.79224e-18)
(0.000925111 4.05392e-05 -2.69398e-19)
(0.00139809 0.000131388 7.48037e-19)
(4.41858e-05 -1.24407e-05 8.26644e-20)
(4.4223e-05 7.20952e-06 -8.5944e-19)
(4.85046e-05 0.000154926 0)
(0.000890519 8.32556e-05 5.97693e-19)
(0.000485456 0.000370445 2.37386e-19)
(0.000770558 1.7315e-05 -3.88829e-20)
(0.000753571 -1.4778e-05 2.56489e-19)
(0.000715162 -0.00022637 0)
(0.0063217 0.0108987 -1.68233e-19)
(0.00637837 0.010975 4.06247e-19)
(0.00615891 0.0107281 -6.18942e-19)
(0.00649938 0.0111334 -8.10349e-20)
(4.03775e-05 0.000124153 8.01413e-19)
(0.000892357 5.69952e-05 1.54755e-22)
(0.00640914 0.0110019 -3.87068e-19)
(0.00628111 0.0108441 5.48578e-19)
(0.00607987 0.0106721 -4.15902e-19)
(0.00651909 0.0111654 -6.82179e-20)
(8.94237e-05 0.000553149 -2.02095e-20)
(0.000155673 -0.000190919 -7.93279e-19)
(0.000759232 -8.96312e-06 -7.59861e-19)
(0.000711112 0.000220208 0)
(0.000786648 2.0556e-06 0)
(0.000184266 0.000393539 3.36641e-19)
(0.000596876 0.000548891 -5.42007e-19)
(1.8573e-05 -2.79434e-06 1.78601e-19)
(0.000208845 0.000464018 -7.39142e-19)
(0.00100339 0.000974946 -1.12827e-19)
(0.000727045 0.000171037 0)
(0.000774593 0.000171188 1.31176e-19)
(0.00637254 0.00587572 1.12969e-18)
(0.00071917 0.0011422 8.28499e-20)
(4.39548e-05 4.35163e-05 -7.45535e-20)
(0.000815513 4.15708e-05 0)
(0.000873258 2.22182e-05 -3.57369e-20)
(4.25925e-05 5.67119e-06 -1.96871e-19)
(3.66479e-05 7.10827e-06 1.93176e-19)
(0.000821301 2.12633e-05 5.36523e-19)
(0.000959254 0.000104237 6.59324e-19)
(0.000664305 4.02277e-05 0)
(0.000221569 -0.000307331 -3.9868e-19)
(0.000894326 0.000145241 3.90099e-19)
(3.39728e-05 -8.04195e-05 2.03351e-19)
(0.00144557 0.000373845 -2.58758e-18)
(0.000693791 -1.01272e-06 0)
(0.000778273 0.000141783 3.75928e-19)
(9.10864e-05 0.000407268 0)
(0.00118079 0.00816784 4.62239e-19)
(0.00046744 0.000507458 -1.22526e-18)
(0.000540862 0.000973815 -1.83935e-19)
(0.000864924 2.45868e-05 -1.45801e-19)
(1.80072e-05 3.01075e-05 0)
(0.000915867 7.36276e-05 6.12498e-19)
(0.00410149 0.00739507 8.14664e-20)
(0.00417239 0.00747879 4.74221e-20)
(0.00449771 0.00751182 4.54559e-19)
(0.00444287 0.00754044 -3.25341e-19)
(0.00647101 0.0111095 8.1128e-20)
(0.0039082 0.00713983 -9.61526e-22)
(0.00551252 0.00779413 -5.65091e-19)
(0.00408987 0.00736355 5.23383e-21)
(0.00518987 0.00785428 5.11977e-19)
(0.00406924 0.0073299 -4.89576e-20)
(0.00495404 0.00771228 0)
(0.00407175 0.0073565 -8.58786e-20)
(0.00474124 0.00758488 4.92961e-19)
(0.00408886 0.00737541 8.75723e-20)
(0.00457347 0.00752249 0)
(0.00427879 0.007421 1.39997e-19)
(0.0042406 0.00760076 5.82807e-19)
(0.00446634 0.00752434 -5.49907e-19)
(0.00438667 0.00750118 3.71552e-19)
(0.0042332 0.00753016 3.0028e-19)
(0.00642767 0.0110403 -4.92289e-21)
(0.00411475 0.00740298 3.11958e-20)
(0.00645517 0.0110679 0)
(2.97539e-05 8.69026e-06 -1.90075e-19)
(0.00198275 0.00653171 2.28619e-19)
(0.000844031 -1.3132e-05 1.09394e-19)
(0.000856029 1.81755e-05 0)
(3.46309e-06 3.48534e-06 -3.99566e-19)
(6.42092e-05 -0.000196052 6.92599e-19)
(2.45582e-05 6.42963e-05 2.0913e-18)
(0.000809781 0.000184803 -9.0188e-20)
(0.000781957 1.11731e-05 6.9945e-19)
(3.89857e-06 -3.9659e-06 3.10349e-19)
(2.65177e-05 -4.31054e-05 -1.84752e-18)
(0.000747996 2.58269e-05 1.61592e-19)
(0.000850558 0.000128115 -3.07567e-20)
(0.000779344 -7.85975e-06 1.469e-19)
(0.000403924 0.000659701 0)
(0.000112898 -0.000152886 1.15254e-18)
(0.000843765 1.75413e-05 1.52418e-19)
(2.32554e-05 2.83056e-05 0)
(0.000104714 0.000566721 -6.31827e-19)
(0.000605842 0.000601761 1.31923e-18)
(0.000339221 0.000728963 0)
(0.000778536 -1.57641e-05 0)
(0.000782993 2.18129e-05 1.16943e-18)
(2.31976e-05 5.39767e-05 -3.51885e-18)
(2.11562e-05 1.03352e-05 3.74047e-19)
(0.000113894 0.000155312 0)
(6.10742e-05 -4.44622e-05 0)
(6.9402e-05 0.000121517 2.01223e-19)
(0.000910587 0.000173604 3.50861e-19)
(0.00079617 3.16887e-06 -1.38335e-18)
(2.63639e-05 3.89242e-05 0)
(0.000564146 4.93637e-05 -6.02633e-20)
(0.000789779 3.51534e-05 -1.54801e-19)
(0.000826054 1.70039e-05 1.04071e-18)
(0.000255271 0.000546679 6.32872e-19)
(0.00084107 0.000148281 0)
(2.99138e-05 -3.09643e-05 5.39292e-19)
(4.36813e-06 -1.33787e-05 -3.20328e-19)
(0.00107646 1.59112e-05 0)
(0.00101409 0.00222066 0)
(0.00102746 -4.43286e-05 0)
(0.000982497 0.000194732 4.27711e-19)
(0.000817486 -1.89215e-05 -2.81976e-19)
(0.000901688 0.000120752 -6.8563e-19)
(0.000784781 6.55384e-06 0)
(4.43124e-05 7.73195e-05 -1.71759e-19)
(0.000173092 0.000331214 1.08227e-18)
(0.000787874 3.36828e-05 1.51476e-23)
(0.00106701 0.000191616 -6.69103e-19)
(0.00108301 0.000117495 0)
(3.61127e-06 1.17983e-05 2.51316e-19)
(2.5352e-05 -2.05107e-05 -1.94536e-19)
(0.000657721 3.08311e-05 6.89081e-21)
(4.28396e-05 -0.00010795 0)
(0.00102933 0.000248184 9.51209e-19)
(0.00502722 0.00974474 -2.83797e-19)
(0.00311697 0.00962351 1.27421e-18)
(8.11611e-05 -0.00012043 -1.9157e-19)
(8.18721e-05 -8.27455e-05 1.86175e-18)
(0.00118893 0.000223726 1.67041e-19)
(0.00132698 0.00106351 2.34325e-19)
(0.000824158 6.37396e-06 -7.37119e-19)
(0.000216241 0.000941163 -2.39141e-19)
(0.000785987 0.000887818 -2.18801e-19)
(0.000787414 -7.59652e-06 0)
(9.88198e-05 0.000680288 0)
(9.81993e-05 0.000287429 -4.77279e-23)
(0.000745871 -2.37155e-05 -1.85112e-23)
(0.000808024 2.96515e-05 1.51189e-19)
(0.00261683 0.00204248 -1.23211e-18)
(0.00175402 0.009241 -1.17365e-19)
(0.000823581 2.8512e-05 4.84695e-19)
(0.00635666 0.00403801 -1.75489e-19)
(0.00672973 0.0115531 -1.36522e-20)
(0.00473227 0.00784188 4.9182e-21)
(0.000799294 3.25805e-05 -2.17626e-18)
(0.0008221 3.33737e-05 -4.14279e-24)
(1.49908e-05 -1.16891e-05 -3.48409e-19)
(4.85946e-05 9.90992e-05 -3.49673e-19)
(7.97099e-05 0.000283078 8.7669e-19)
(1.53226e-05 2.02386e-05 4.90969e-19)
(9.08281e-05 0.000240721 3.70164e-19)
(0.000819611 3.62381e-05 0)
(0.00535338 0.00949184 1.94511e-20)
(0.00153022 0.000611329 -2.62018e-20)
(0.000821541 2.30323e-05 3.55892e-19)
(6.14384e-05 -9.47644e-05 0)
(0.00184333 0.000755329 5.46401e-19)
(1.34819e-05 1.08759e-05 -2.70465e-19)
(3.89959e-05 3.38027e-05 9.72938e-20)
(0.0013171 0.00137409 6.37043e-19)
(0.000751681 3.359e-05 1.81098e-19)
(1.16033e-05 -3.2401e-06 -1.70402e-19)
(0.00204239 0.0015448 -1.05718e-18)
(0.000128067 0.000188353 -8.19622e-19)
(0.00392325 0.00847644 -1.09136e-18)
(1.05251e-05 2.86288e-06 8.82437e-20)
(0.000200047 -0.000295128 -1.24797e-18)
(6.58539e-05 -6.09144e-05 4.06125e-20)
(0.00150663 0.000964542 0)
(0.00101925 0.000142938 -4.22034e-22)
(0.000445385 0.000855439 -4.02606e-20)
(0.00080259 2.04825e-05 -2.31638e-19)
(8.69744e-05 0.000195022 7.36437e-19)
(5.12292e-05 -7.172e-05 4.04505e-19)
(2.20189e-05 1.88854e-05 -9.4819e-20)
(3.8155e-05 0.000103987 -3.20646e-19)
(0.000196592 -0.000351369 -5.40402e-19)
(0.00323505 0.0034331 2.96876e-21)
)
;

boundaryField
{
    back
    {
        type            empty;
    }
    ingreso
    {
        type            fixedValue;
        value           uniform (0.0008 0 0);
    }
    salida
    {
        type            zeroGradient;
    }
    front
    {
        type            empty;
    }
    defaultFaces
    {
        type            noSlip;
    }
}


// ************************************************************************* //
