/*--------------------------------*- C++ -*----------------------------------*\
  =========                 |
  \\      /  F ield         | OpenFOAM: The Open Source CFD Toolbox
   \\    /   O peration     | Website:  https://openfoam.org
    \\  /    A nd           | Version:  7
     \\/     M anipulation  |
\*---------------------------------------------------------------------------*/
FoamFile
{
    version     2.0;
    format      ascii;
    class       volVectorField;
    location    "83";
    object      U;
}
// * * * * * * * * * * * * * * * * * * * * * * * * * * * * * * * * * * * * * //

dimensions      [0 1 -1 0 0 0 0];

internalField   nonuniform List<vector> 
591
(
(0.000833273 -1.59661e-05 1.2172e-18)
(0.000826028 -1.53451e-05 -6.63119e-19)
(0.000856485 5.08778e-06 5.71052e-20)
(0.000863694 -1.7484e-05 -1.49072e-19)
(0.00084936 -3.47697e-06 2.25523e-19)
(0.000803118 -3.99092e-05 -1.39602e-19)
(0.000565181 -0.000259456 8.06155e-19)
(0.000803893 4.50893e-06 2.09721e-18)
(0.00573065 0.00250693 9.87923e-19)
(0.000806723 -8.52619e-06 2.45051e-18)
(4.74585e-05 0.00016544 1.21813e-18)
(0.000936116 0.00138538 9.40776e-21)
(0.000800454 4.26611e-06 1.3243e-18)
(0.00160004 0.00239962 -7.87464e-19)
(0.0008034 1.8135e-06 -4.45496e-19)
(5.32885e-05 -0.000179262 2.22971e-22)
(0.000138886 0.000674739 7.04886e-19)
(0.000817989 7.40148e-05 -4.97329e-19)
(0.00191158 0.000393383 4.73893e-19)
(0.00135988 0.000253231 -2.4708e-19)
(0.000832816 -7.65847e-06 3.73171e-19)
(0.0034001 0.00655947 -8.15078e-20)
(2.52667e-05 6.71688e-05 2.70914e-19)
(0.000836026 -2.12929e-05 -4.51401e-19)
(8.75629e-06 -1.36502e-05 3.58878e-19)
(0.000782378 3.74035e-05 0)
(9.3905e-05 0.000470907 1.59951e-19)
(0.000557873 4.4038e-06 -1.78816e-19)
(0.000758694 4.67352e-05 1.14935e-18)
(0.000808892 6.17735e-05 5.86398e-19)
(5.35055e-05 -4.59774e-06 -4.79967e-24)
(2.73338e-05 -4.29227e-05 3.5213e-19)
(3.25402e-05 -2.80452e-06 -4.64163e-20)
(4.16661e-05 -1.21283e-05 0)
(5.0622e-05 -1.29825e-05 1.13131e-18)
(0.00117334 0.000135736 1.79898e-19)
(2.75558e-05 -4.77783e-06 4.47086e-20)
(0.000825363 1.67801e-06 3.16191e-23)
(2.5162e-05 4.11083e-05 2.65995e-19)
(2.58508e-06 -8.16775e-05 -8.54308e-19)
(0.000650507 -0.000200696 9.5934e-19)
(2.17591e-05 -5.84042e-06 4.54765e-20)
(0.000807549 8.83184e-06 -1.58069e-18)
(0.00083209 4.69463e-05 -6.91062e-19)
(1.44606e-05 -6.73561e-06 0)
(5.16467e-05 5.42692e-06 8.5176e-20)
(0.00134735 0.00450227 8.92919e-19)
(7.21847e-05 1.33026e-05 8.63513e-20)
(0.000801636 1.62207e-05 0)
(0.000388562 -0.000220891 6.77289e-19)
(0.000385781 0.000270078 5.11856e-21)
(0.000398692 4.11745e-05 -1.00366e-18)
(0.00634802 0.0109411 -7.68577e-19)
(0.00622467 0.0107961 1.52788e-20)
(0.00561425 0.0103789 1.45588e-18)
(0.00080736 3.79368e-05 0)
(6.41528e-05 2.8207e-05 0)
(0.000318329 4.51344e-06 1.96448e-23)
(5.94928e-05 8.62239e-06 -3.46413e-19)
(0.000813446 -7.63135e-06 0)
(0.0006491 2.88246e-05 3.1752e-19)
(0.000839831 1.81689e-05 2.20733e-18)
(0.000806148 3.48925e-05 -5.39015e-19)
(0.000799975 1.30313e-05 -3.15712e-19)
(0.00171259 0.000489105 5.42738e-19)
(0.000804649 2.35135e-05 -1.15048e-18)
(0.000833394 2.77907e-05 -5.24193e-19)
(7.56264e-05 -4.84456e-06 -1.73389e-19)
(0.000688897 0.0022611 0)
(0.000841715 4.40991e-05 0)
(0.000785161 2.03671e-05 -1.39283e-18)
(3.58475e-05 1.46528e-05 0)
(0.000290939 0.000267086 3.26809e-19)
(3.63722e-05 -1.63236e-05 0)
(3.80566e-05 -5.69511e-06 1.59452e-19)
(1.06064e-05 -3.97973e-05 -3.36624e-20)
(0.000796857 7.81115e-05 2.46886e-19)
(4.16659e-05 9.48307e-06 0)
(0.000806288 5.56422e-05 4.47437e-19)
(0.0007774 0.000293863 2.10701e-19)
(0.000962896 6.5109e-05 -3.97861e-20)
(4.06358e-05 2.12252e-05 -4.51804e-20)
(4.62767e-06 -1.71272e-05 0)
(0.000438174 0.000213732 1.70165e-19)
(2.79312e-06 1.94117e-05 0)
(0.000800215 4.21246e-05 -6.06643e-19)
(0.000627109 -0.000118781 0)
(6.07635e-05 -3.22106e-06 -1.74457e-19)
(2.08652e-06 -2.35483e-05 0)
(0.000832423 0.000240774 -3.41216e-19)
(2.89222e-06 -9.96339e-06 0)
(0.000427613 0.000321678 -1.32398e-23)
(0.000537074 0.00010989 0)
(0.000811861 4.34377e-05 -3.00354e-24)
(2.44589e-06 1.19637e-05 -4.21658e-20)
(0.000463135 -2.04518e-05 1.7633e-18)
(0.00102137 7.24373e-05 4.15963e-20)
(0.000807163 4.5847e-05 6.41342e-22)
(0.000743309 0.0006585 2.69468e-19)
(6.8758e-06 4.36749e-05 0)
(-3.23921e-06 -3.18704e-05 -3.12108e-19)
(-3.05441e-05 -4.99626e-05 -1.10149e-18)
(4.63242e-06 7.09196e-05 -5.9629e-19)
(0.000605372 -2.49807e-05 0)
(8.74599e-06 9.49465e-05 0)
(0.000816508 3.0048e-05 2.18239e-18)
(0.000794192 2.98957e-05 1.53409e-18)
(0.000437522 -9.66749e-05 0)
(4.04613e-05 0.000213013 -8.95262e-19)
(4.54864e-07 0.000159525 4.9673e-19)
(5.86166e-05 0.000399863 6.25186e-19)
(0.000308435 7.42896e-05 -9.37042e-19)
(0.000802275 2.01237e-05 1.374e-19)
(0.000259262 -5.61495e-05 5.31153e-19)
(4.24409e-06 2.83405e-05 0)
(1.98531e-05 0.000277417 -1.09392e-18)
(0.000323214 0.000321252 -1.61686e-19)
(-6.78379e-07 -2.57371e-05 1.46531e-19)
(0.000669996 0.000810813 0)
(0.000371326 0.000384611 5.74349e-20)
(0.000820523 2.27182e-05 1.07048e-18)
(0.000799655 1.67913e-06 -2.72301e-18)
(5.39788e-06 -1.51684e-05 0)
(0.000664693 -3.74586e-05 -1.12298e-19)
(0.000322295 -0.000131949 1.24306e-18)
(0.0026334 0.000809971 -3.36455e-19)
(6.95036e-06 0.000124621 -6.13142e-19)
(6.95431e-06 0.000152924 1.61941e-18)
(0.000682238 2.4075e-05 -3.89819e-20)
(5.87795e-05 -1.50844e-05 -7.50066e-19)
(0.000809302 3.4113e-05 -3.87055e-19)
(0.000731725 2.68111e-05 -4.10426e-20)
(3.3724e-05 0.000323673 -5.97025e-19)
(0.000494477 5.90312e-05 -4.93871e-19)
(4.48826e-05 -3.87166e-06 1.56132e-19)
(0.000838027 3.51187e-05 -1.09131e-18)
(0.00154264 0.0002355 -1.13693e-18)
(4.78411e-06 5.70842e-05 4.96368e-19)
(0.000811474 3.3375e-05 -4.98489e-19)
(0.000919078 0.000548345 -7.85007e-20)
(0.000148255 0.000784006 0)
(0.000591225 6.36821e-05 0)
(0.000276909 4.72288e-05 -1.60941e-18)
(6.08944e-05 5.52018e-05 -1.37392e-18)
(2.87776e-05 1.89343e-05 0)
(0.00424724 0.00740018 -1.0196e-20)
(0.00422548 0.00737204 3.16491e-20)
(0.00442768 0.00757481 -4.96755e-21)
(0.00420625 0.00773407 0)
(0.0041987 0.00759989 5.77245e-19)
(0.0042443 0.00740147 -9.20006e-20)
(0.00420996 0.00804159 4.84471e-19)
(0.00428981 0.00742239 0)
(0.00420822 0.00853461 6.16782e-19)
(0.00432633 0.00745093 2.23909e-19)
(0.000829565 1.45179e-05 -1.37328e-18)
(0.0007766 5.72613e-05 0)
(0.000211954 4.54722e-05 1.27683e-19)
(4.73327e-05 1.39495e-05 8.71732e-20)
(7.49571e-05 4.11311e-05 6.79933e-19)
(0.000102077 3.65997e-05 -3.41626e-19)
(9.51958e-05 1.35677e-06 0)
(4.47581e-05 3.74655e-06 8.18264e-20)
(0.000207033 0.000126451 0)
(0.000162668 3.47877e-05 -5.24244e-20)
(0.000345802 0.00021838 -5.09199e-21)
(5.33358e-05 3.99617e-05 -4.37598e-19)
(8.68632e-05 2.32417e-05 -8.52362e-20)
(8.75877e-05 5.76341e-05 1.31178e-21)
(0.000258821 0.000362826 -6.66102e-19)
(0.000108774 0.000995029 0)
(4.00839e-05 4.9642e-05 3.43018e-19)
(0.000198545 0.00174645 0)
(0.000208303 0.000249516 7.04583e-19)
(3.40845e-05 -3.3144e-06 1.1148e-19)
(0.000488857 0.000161648 -1.72282e-19)
(0.00076847 2.45641e-05 -1.92389e-18)
(3.93865e-05 -1.54751e-06 4.70388e-24)
(0.000143862 1.8455e-05 2.24563e-19)
(0.000245389 8.56493e-05 -8.99221e-20)
(0.000881981 0.000699279 3.34905e-19)
(0.000726896 0.00163443 -9.23429e-21)
(0.000399715 0.00142083 -9.39052e-21)
(0.00102752 0.000546307 0)
(9.60062e-05 -1.84856e-05 1.11856e-18)
(0.000110921 1.00239e-05 -4.42999e-20)
(0.000464998 -0.000281333 -1.13608e-18)
(0.00082014 4.18269e-05 0)
(0.000178411 -7.84718e-06 3.63261e-19)
(0.000302568 0.00130232 0)
(0.00108608 0.000775157 -7.30118e-20)
(0.000827193 3.0842e-05 -1.86531e-19)
(7.09729e-05 -2.27224e-05 -2.99939e-19)
(0.000835919 0.000316822 -2.08021e-20)
(5.01317e-05 -2.12895e-05 -5.99414e-19)
(0.000226999 0.000170394 8.63782e-20)
(0.000230955 0.000306499 -3.44973e-19)
(0.000892231 0.000250629 0)
(0.000821241 5.47532e-05 0)
(0.000265326 0.000128983 1.76827e-19)
(0.000233158 -8.14944e-06 5.5057e-24)
(0.000184698 0.00020166 0)
(0.000301907 0.000649437 -5.55643e-21)
(0.000355024 -1.80842e-05 0)
(0.000378903 0.000598693 0)
(0.0001061 7.74165e-05 -1.34653e-21)
(0.000810581 3.08971e-05 -9.57192e-19)
(0.000806356 1.90537e-05 7.97842e-19)
(0.000125821 5.18328e-05 -1.49838e-19)
(0.000965947 0.000147267 8.50341e-20)
(0.000839614 4.07315e-05 3.3342e-19)
(0.000820096 3.12891e-05 -2.94074e-19)
(0.00102749 0.000418035 0)
(0.00044354 0.000114026 6.24357e-19)
(0.000906034 0.000322206 2.09112e-20)
(0.000585321 0.000152977 0)
(0.00027312 0.000446 4.09599e-19)
(0.000262376 0.000212505 -8.44084e-20)
(0.00109948 0.000381446 -7.82032e-19)
(0.000632569 0.000103018 -1.79268e-19)
(0.000816352 7.43971e-05 -7.45724e-21)
(0.000843789 2.65962e-05 9.4009e-20)
(6.46332e-05 -8.65632e-05 -1.98113e-18)
(0.000743013 0.000380409 2.1921e-19)
(0.000677497 6.63922e-05 2.30609e-20)
(0.000712141 0.000279323 1.61208e-23)
(0.000735417 0.00046082 -4.09643e-19)
(0.000849921 2.24419e-05 9.06963e-20)
(6.97004e-05 7.54414e-05 0)
(0.000660499 0.000422476 -4.65866e-20)
(0.000182572 8.89393e-05 0)
(0.000374506 0.000501748 -2.64811e-19)
(0.000310981 0.000162385 0)
(0.000680251 0.000205429 3.55181e-19)
(0.000655112 0.000259536 -4.37197e-20)
(8.02484e-05 0.000100384 6.19079e-19)
(0.000880536 9.56321e-05 -1.63458e-18)
(5.456e-05 1.96706e-05 2.57158e-19)
(0.000892863 7.24071e-05 -1.68611e-18)
(0.000845136 9.004e-05 1.63001e-19)
(0.00081236 3.51308e-05 1.90853e-18)
(0.000820037 3.37761e-05 -1.32831e-19)
(0.000741738 7.13205e-05 0)
(0.000805703 2.19773e-05 8.95498e-19)
(0.000967198 0.000233767 -4.27042e-19)
(0.000781457 9.76842e-05 -4.83672e-19)
(0.000781223 0.000234977 -8.81105e-20)
(0.000203703 -0.000181744 -2.07662e-18)
(0.000755657 8.02296e-05 8.87419e-19)
(0.000642146 0.000593818 0)
(7.32966e-05 -0.000120401 0)
(0.00122662 0.000473535 4.97225e-19)
(0.000585575 -5.94721e-05 -3.27095e-18)
(0.00135063 0.000414844 5.7642e-19)
(0.00124953 0.000718106 -6.38882e-20)
(0.000815022 3.2478e-05 -2.12523e-19)
(0.000840319 6.69118e-05 -1.42676e-18)
(0.000815034 2.74417e-05 1.58752e-18)
(0.000816619 2.4023e-05 9.78085e-20)
(0.000672596 0.000353258 -4.40349e-20)
(0.000100097 0.000117954 7.22861e-24)
(0.000758949 -3.41895e-05 2.65011e-19)
(0.000212024 -0.000263826 -7.31667e-19)
(0.000631812 0.00018432 0)
(0.000717744 4.9169e-05 9.90258e-20)
(0.000707615 9.58382e-06 -3.80758e-19)
(0.000393064 0.000166912 3.93315e-20)
(0.000810181 0.000508786 -1.65456e-19)
(0.000146642 6.97178e-05 3.61565e-25)
(0.000815818 0.000413177 0)
(0.000984871 0.000316526 4.15714e-20)
(0.000763814 -6.87461e-05 -6.15977e-19)
(0.000351876 9.94979e-05 4.97755e-19)
(0.000904539 0.000427327 0)
(4.66631e-05 2.89412e-05 1.33693e-19)
(0.000489441 0.000264524 2.13924e-19)
(0.000529125 -0.000162716 -7.09374e-19)
(0.000111496 -0.000169925 -1.05559e-18)
(0.000825953 3.6866e-05 -4.86693e-19)
(0.000767801 -7.49851e-05 -1.9434e-19)
(0.0005478 0.000729694 -1.17425e-18)
(0.000851981 4.71062e-05 -6.74499e-20)
(0.000595181 -1.64182e-05 1.28106e-18)
(0.000711818 9.95964e-05 2.27748e-20)
(0.00053816 0.00020648 -1.65664e-19)
(2.73279e-05 -2.01895e-05 -8.75723e-20)
(0.000158619 -5.24963e-05 2.40572e-18)
(1.50627e-05 6.25658e-07 -1.94821e-19)
(0.000835978 0.000116853 3.63694e-19)
(0.000673078 0.000135467 0)
(0.000178362 -9.9099e-05 -1.04802e-18)
(0.000116128 -2.32213e-05 3.12804e-19)
(0.000100142 -3.87473e-05 1.3368e-23)
(0.000804459 0.000105287 -3.19218e-19)
(0.000148904 -1.81319e-05 0)
(0.000590631 0.000240146 0)
(0.000111331 0.000325954 -3.62809e-19)
(0.000865293 0.000101054 2.10539e-18)
(1.22632e-05 8.94146e-07 0)
(0.000884067 5.31301e-05 0)
(3.91911e-05 -2.53723e-05 0)
(0.000815379 4.79369e-05 -4.46742e-21)
(0.000786611 -3.75769e-05 0)
(0.00426025 0.00740669 8.06972e-20)
(0.00436223 0.00748688 1.4335e-19)
(0.00084355 -1.1484e-05 0)
(0.000792929 -4.14642e-05 8.12052e-19)
(0.000152098 0.000119896 1.4919e-19)
(0.000857894 6.72899e-05 8.07734e-19)
(0.000128163 9.69632e-05 2.34365e-20)
(0.000785878 -2.51445e-05 6.24253e-19)
(3.2607e-05 8.70156e-06 0)
(2.51879e-05 -1.24191e-05 -4.48417e-20)
(0.000902362 4.84332e-05 -4.8648e-19)
(2.87611e-05 -3.01111e-05 -6.69708e-19)
(0.000762863 0.000124053 -4.23178e-20)
(0.000168786 0.00015768 -1.88076e-19)
(0.000814541 3.02686e-05 0)
(0.00468248 0.00815358 9.00479e-22)
(0.000187086 0.000790184 3.33439e-19)
(0.000107538 -6.33426e-05 -9.14399e-19)
(5.52264e-05 -3.49428e-05 -1.16861e-18)
(0.000615822 1.33263e-05 1.89814e-20)
(0.00058316 0.00040604 0)
(0.000422098 0.000444426 -2.56301e-19)
(7.46111e-05 -6.2359e-05 1.18355e-18)
(0.000575002 -3.78228e-07 7.6911e-20)
(3.92953e-05 1.42399e-06 4.07037e-19)
(0.000712825 -4.74002e-05 1.17145e-18)
(0.000812171 3.27501e-05 -6.03896e-19)
(5.674e-05 -5.47041e-05 1.70913e-18)
(0.000842018 -3.30647e-05 -5.92814e-24)
(0.000592213 6.60369e-06 -3.75953e-20)
(0.00087213 7.11416e-05 0)
(0.000843244 4.4925e-05 0)
(0.00591715 0.00724242 2.59736e-19)
(1.55819e-05 -2.66872e-06 -1.19572e-19)
(0.000110477 -0.000109061 7.72905e-19)
(0.000730994 0.000116024 -6.96335e-19)
(1.83912e-05 1.27069e-07 2.01502e-19)
(0.000636517 -3.62318e-05 -7.23703e-19)
(0.000749041 3.62077e-05 1.55781e-18)
(0.00070948 0.000158855 -3.55388e-19)
(0.000807582 -1.22019e-05 3.60831e-19)
(6.95301e-05 -3.55544e-05 1.11583e-18)
(0.000800829 6.59759e-06 -3.22642e-19)
(0.000870191 3.9322e-05 0)
(0.000545648 0.000302709 4.20962e-20)
(0.000862355 5.07976e-05 -9.47064e-19)
(1.62587e-05 2.69271e-06 9.11267e-19)
(0.000857331 4.44828e-05 9.65651e-19)
(0.000860159 1.68627e-05 -9.64527e-19)
(0.000758063 -1.52438e-06 -5.69087e-19)
(0.00053369 -7.79935e-05 -5.25568e-19)
(0.0043293 0.00745316 2.47041e-19)
(0.00422336 0.00752875 -2.53313e-19)
(0.00422109 0.00758659 2.66917e-19)
(0.00425598 0.00741071 1.97958e-19)
(0.000844989 -3.28176e-05 1.44252e-19)
(0.00447636 0.00751338 0)
(0.00440381 0.00751752 -3.8685e-19)
(2.56158e-05 -1.26816e-07 -9.98044e-19)
(0.00417049 0.00746909 -6.33632e-20)
(0.00414589 0.00743227 -2.21503e-19)
(0.00602936 0.0106056 0)
(0.00654041 0.0111873 3.71397e-20)
(0.00600929 0.0105753 0)
(0.00655611 0.0112109 1.30872e-19)
(0.00599663 0.0105992 2.69684e-19)
(0.00659281 0.0112278 1.24594e-20)
(0.00593538 0.010612 -7.76771e-19)
(0.00662307 0.0111467 8.14929e-21)
(0.00390361 0.00919845 -1.90827e-19)
(0.00418675 0.00748809 3.8998e-21)
(0.00423789 0.00755212 7.93574e-20)
(0.00415037 0.00743458 4.12016e-20)
(0.000886682 0.000194094 4.46676e-20)
(8.59483e-06 1.21321e-06 0)
(0.00071428 -0.000112778 0)
(0.000659828 5.41478e-05 0)
(0.00244384 0.00111379 4.23056e-21)
(0.000757046 -3.12254e-05 1.72555e-19)
(3.78843e-05 5.0318e-06 4.53995e-20)
(7.93648e-06 -2.46612e-05 1.65283e-18)
(0.00085587 1.03354e-05 0)
(2.61038e-05 1.1615e-05 -1.91702e-19)
(0.000139546 0.000219942 0)
(1.46505e-05 -9.21947e-07 0)
(1.16907e-05 -1.13945e-06 0)
(0.000829524 0.000143983 1.13738e-20)
(0.000811048 -1.81834e-05 1.79488e-19)
(3.74693e-05 0.000265739 -1.32368e-23)
(0.000157032 0.000270269 -1.84172e-18)
(0.000606811 0.000327615 -8.56897e-20)
(0.000898769 0.000110455 6.01433e-19)
(0.000632804 -0.000185213 6.73941e-19)
(0.000360763 0.00111176 0)
(0.000477065 0.000575388 2.71499e-18)
(8.93158e-05 0.000142458 -1.80293e-18)
(1.86131e-05 -9.51039e-08 0)
(0.000822154 -6.13047e-05 3.64153e-20)
(1.5184e-05 3.39378e-05 1.64428e-18)
(0.000897303 3.40017e-05 2.71122e-19)
(-2.58484e-05 4.07888e-05 3.81024e-18)
(0.000928558 4.06257e-05 -2.6899e-19)
(0.0013414 0.000151272 7.47132e-19)
(3.22532e-05 -1.01625e-05 8.25601e-20)
(3.3861e-05 3.04342e-06 -8.59005e-19)
(5.07927e-05 0.00013896 0)
(0.000914385 8.42886e-05 5.98449e-19)
(0.00049602 0.000367569 2.37118e-19)
(0.000639993 1.76094e-05 -3.89061e-20)
(0.000782322 -4.8563e-07 2.57365e-19)
(0.000733763 -0.00016242 0)
(0.00632117 0.010896 -1.68065e-19)
(0.00637893 0.0109737 4.05842e-19)
(0.00616014 0.0107307 -6.18457e-19)
(0.00650143 0.0111326 -8.09808e-20)
(3.31384e-05 0.000116023 8.00442e-19)
(0.000924857 6.06442e-05 1.45023e-22)
(0.0064115 0.0110062 -3.86468e-19)
(0.00628212 0.0108456 5.48482e-19)
(0.00608025 0.0106724 -4.16849e-19)
(0.00652194 0.011165 -6.81409e-20)
(7.95656e-05 0.000499175 -2.01794e-20)
(6.5885e-05 -0.000199011 -7.92652e-19)
(0.000656922 -2.05814e-05 -7.65743e-19)
(0.000727152 0.000219852 0)
(0.00080024 2.41806e-07 0)
(0.000187533 0.000388646 3.36264e-19)
(0.000600237 0.000512238 -5.41812e-19)
(7.7921e-06 -1.34656e-06 1.78374e-19)
(0.000200316 0.000467314 -7.38321e-19)
(0.00101601 0.000976325 -1.12681e-19)
(0.000747846 0.000165914 0)
(0.000791097 0.000184619 1.31006e-19)
(0.0063528 0.00588199 1.13153e-18)
(0.000738314 0.00112963 8.26555e-20)
(3.72568e-05 3.64499e-05 -7.44602e-20)
(0.000808665 1.10783e-05 0)
(0.000873107 2.49284e-05 -3.56867e-20)
(3.2248e-05 2.72031e-06 -1.96698e-19)
(2.79873e-05 4.09893e-06 1.92975e-19)
(0.000833984 1.59738e-05 5.37153e-19)
(0.000977477 0.000111652 6.5832e-19)
(0.000551758 4.16569e-05 0)
(0.0002229 -0.000288404 -3.98092e-19)
(0.000917546 0.000144808 3.89549e-19)
(7.82892e-06 -5.51179e-05 2.03077e-19)
(0.00145265 0.00044233 -2.58152e-18)
(0.000579561 -1.0102e-05 0)
(0.000795168 0.000143104 3.75426e-19)
(9.51159e-05 0.000391757 0)
(0.00118832 0.00816108 4.62115e-19)
(0.000493562 0.000498803 -1.22443e-18)
(0.000540729 0.00101392 -1.83737e-19)
(0.000884222 1.64405e-05 -1.46039e-19)
(1.20935e-05 2.4006e-05 0)
(0.000953526 7.76174e-05 6.11595e-19)
(0.00410635 0.00739544 8.14262e-20)
(0.00417133 0.00747355 4.73031e-20)
(0.00450019 0.0075161 4.54084e-19)
(0.00444532 0.0075418 -3.29465e-19)
(0.00647536 0.0111096 8.10582e-20)
(0.00391484 0.0071461 -9.64279e-22)
(0.00550818 0.00779894 -5.64761e-19)
(0.00409789 0.00737171 5.21869e-21)
(0.00518899 0.00785858 5.11694e-19)
(0.0040797 0.00734015 -4.87184e-20)
(0.00495411 0.00771799 0)
(0.00408499 0.00736453 -8.56554e-20)
(0.00474279 0.00758895 4.92535e-19)
(0.00409825 0.00737612 8.7513e-20)
(0.00457539 0.00752859 0)
(0.00428381 0.00742092 1.39747e-19)
(0.0042393 0.00759819 5.80604e-19)
(0.00446776 0.00752727 -5.55511e-19)
(0.004388 0.00750507 3.71393e-19)
(0.00422792 0.00752469 2.87424e-19)
(0.0064307 0.0110429 -4.97742e-21)
(0.0041178 0.00740154 3.11595e-20)
(0.00645882 0.0110728 0)
(2.25846e-05 5.26085e-06 -1.89839e-19)
(0.00200019 0.0065449 2.28226e-19)
(0.000838337 -5.43117e-05 1.09871e-19)
(0.000854942 6.08529e-06 0)
(1.21316e-06 9.70926e-07 -3.99069e-19)
(-1.90298e-05 -0.000112144 6.91526e-19)
(2.3932e-05 5.49245e-05 2.08878e-18)
(0.000831915 0.000182657 -9.00609e-20)
(0.000801008 8.68312e-06 7.06312e-19)
(8.61423e-07 -6.28912e-07 3.09955e-19)
(1.64698e-05 -3.17115e-05 -1.84544e-18)
(0.000763342 2.70673e-05 1.63134e-19)
(0.000869712 0.000124135 -3.07952e-20)
(0.000800778 -8.05159e-06 1.48118e-19)
(0.000422553 0.00068 0)
(2.81706e-05 -0.000141982 1.15131e-18)
(0.000868375 4.99301e-06 1.52503e-19)
(1.91609e-05 2.27313e-05 0)
(0.000117328 0.000557524 -6.31196e-19)
(0.00061056 0.000589769 1.31783e-18)
(0.000327963 0.000754837 0)
(0.000801768 -1.584e-05 0)
(0.000801472 2.95454e-06 1.17578e-18)
(1.65075e-05 4.7417e-05 -3.51459e-18)
(1.55911e-05 6.53898e-06 3.73582e-19)
(0.000116396 0.00014199 0)
(4.08511e-05 -4.00089e-05 0)
(6.06204e-05 0.000110123 2.00978e-19)
(0.000939299 0.000189593 3.50393e-19)
(0.00080029 1.49489e-05 -1.39855e-18)
(2.19828e-05 3.17513e-05 0)
(0.000437914 6.4032e-06 -6.04308e-20)
(0.000800689 3.71807e-05 -1.56331e-19)
(0.000845539 4.06021e-05 1.06434e-18)
(0.000256446 0.000541997 6.32173e-19)
(0.000879926 0.000156985 0)
(1.65213e-05 -2.20198e-05 5.38562e-19)
(2.05493e-06 -4.28415e-06 -3.19931e-19)
(0.000962928 3.28669e-05 0)
(0.00104046 0.00226787 0)
(0.000922554 -1.59836e-06 0)
(0.0010041 0.000207936 4.27129e-19)
(0.000818047 -3.59182e-05 -2.84259e-19)
(0.000935779 0.000109805 -6.84697e-19)
(0.00080096 3.42408e-06 0)
(4.12902e-05 6.66401e-05 -1.71548e-19)
(0.000174561 0.000325451 1.08104e-18)
(0.000800022 1.37832e-05 -2.20023e-23)
(0.00109726 0.000209921 -6.68787e-19)
(0.00108956 0.000127358 0)
(2.25073e-06 5.23984e-06 2.51003e-19)
(1.67224e-05 -1.41724e-05 -1.94293e-19)
(0.000564113 4.28711e-05 6.94939e-21)
(2.60403e-06 -7.21785e-05 0)
(0.00106791 0.000255562 9.49919e-19)
(0.00502867 0.00974842 -2.83005e-19)
(0.00312137 0.00961729 1.27259e-18)
(3.12743e-05 -0.00010064 -1.91315e-19)
(4.78996e-05 -7.35357e-05 1.85927e-18)
(0.00119025 0.000251597 1.67332e-19)
(0.00132895 0.0010779 2.34067e-19)
(0.000810888 1.45601e-06 -7.34151e-19)
(0.000197047 0.000950595 -2.38218e-19)
(0.000817624 0.000941766 -2.18566e-19)
(0.000800197 -2.37538e-06 0)
(8.30147e-05 0.000618318 0)
(9.50032e-05 0.000280352 -3.80204e-23)
(0.000718883 -4.5215e-05 -1.67652e-23)
(0.000824679 6.81656e-05 1.52589e-19)
(0.00263084 0.00206342 -1.23122e-18)
(0.00176002 0.00923764 -1.17217e-19)
(0.000834859 6.17163e-05 4.92221e-19)
(0.0063249 0.00405081 -1.76042e-19)
(0.00672105 0.0115576 -1.36467e-20)
(0.00473412 0.00784389 4.92927e-21)
(0.000803458 1.37307e-05 -2.18186e-18)
(0.000839885 4.64928e-06 6.4234e-24)
(7.34491e-06 -6.66877e-06 -3.47981e-19)
(4.59427e-05 8.73008e-05 -3.49244e-19)
(6.43957e-05 0.000266485 8.75156e-19)
(1.01235e-05 1.51692e-05 4.90357e-19)
(8.96566e-05 0.000227513 3.69732e-19)
(0.000821737 1.96888e-05 0)
(0.00534811 0.00949241 1.95037e-20)
(0.00153933 0.000637167 -2.61228e-20)
(0.0008197 3.76795e-05 3.60139e-19)
(2.69312e-05 -7.86108e-05 0)
(0.00184779 0.000747493 5.45952e-19)
(8.56901e-06 6.86613e-06 -2.70128e-19)
(3.2627e-05 2.71255e-05 9.71726e-20)
(0.00133194 0.0013974 6.36586e-19)
(0.000737498 4.91693e-05 1.83084e-19)
(3.64143e-06 -1.27141e-06 -1.70186e-19)
(0.00206198 0.00156144 -1.05578e-18)
(0.000126545 0.000176183 -8.18682e-19)
(0.00392099 0.00848722 -1.09081e-18)
(4.53322e-06 1.32411e-06 8.81341e-20)
(0.000118035 -8.49051e-05 -1.25749e-18)
(4.32586e-05 -5.61568e-05 4.05602e-20)
(0.00152667 0.000985935 0)
(0.00104099 0.000138838 -4.03158e-22)
(0.000453328 0.00084813 -4.02003e-20)
(0.000803044 2.76722e-05 -2.34054e-19)
(8.70418e-05 0.000182397 7.36001e-19)
(2.68201e-05 -5.85722e-05 4.03964e-19)
(1.75556e-05 1.43752e-05 -9.4701e-20)
(3.03454e-05 8.9618e-05 -3.2026e-19)
(0.000211003 -0.000220516 -5.45304e-19)
(0.00324981 0.0034633 2.90399e-21)
)
;

boundaryField
{
    back
    {
        type            empty;
    }
    ingreso
    {
        type            fixedValue;
        value           uniform (0.0008 0 0);
    }
    salida
    {
        type            zeroGradient;
    }
    front
    {
        type            empty;
    }
    defaultFaces
    {
        type            noSlip;
    }
}


// ************************************************************************* //
