/*--------------------------------*- C++ -*----------------------------------*\
  =========                 |
  \\      /  F ield         | OpenFOAM: The Open Source CFD Toolbox
   \\    /   O peration     | Website:  https://openfoam.org
    \\  /    A nd           | Version:  7
     \\/     M anipulation  |
\*---------------------------------------------------------------------------*/
FoamFile
{
    version     2.0;
    format      ascii;
    class       surfaceScalarField;
    location    "53";
    object      phi;
}
// * * * * * * * * * * * * * * * * * * * * * * * * * * * * * * * * * * * * * //

dimensions      [0 3 -1 0 0 0 0];

internalField   nonuniform List<scalar> 
1111
(
6.44478e-09
1.32292e-08
-1.58059e-08
-3.86813e-09
6.52932e-09
-1.17911e-08
1.17066e-08
-1.47236e-08
5.06272e-09
9.33477e-09
3.26151e-10
4.52361e-10
-5.28918e-10
-1.41979e-08
1.42744e-08
-1.41047e-08
1.38533e-08
7.03754e-10
-1.63305e-09
1.48805e-08
2.18113e-09
-3.83635e-09
9.74918e-09
-1.06533e-08
4.74045e-09
-6.68806e-09
-1.26173e-08
1.25826e-08
6.72273e-09
-5.0492e-08
-2.58974e-08
7.63893e-08
-8.10943e-09
7.57966e-09
7.05909e-09
3.56767e-09
3.45007e-10
-3.64636e-09
-2.66323e-10
1.56109e-08
-1.58923e-08
-2.30136e-08
2.32949e-08
-9.63026e-09
-7.93325e-09
8.78583e-09
8.77768e-09
-3.52515e-08
1.75869e-08
-3.23454e-08
5.00101e-08
9.53344e-09
-1.94339e-09
-1.42781e-08
-1.855e-09
2.51785e-09
-3.73002e-09
3.06717e-09
-3.74421e-09
1.32841e-08
1.94327e-09
-1.14832e-08
8.84926e-09
-2.37241e-09
-1.50337e-08
8.55681e-09
3.7722e-08
-3.05793e-08
-7.14268e-09
-1.93505e-08
1.34743e-10
1.74335e-08
1.7822e-09
-7.57142e-10
4.05203e-09
-1.78971e-08
1.46022e-08
-6.12177e-08
-3.9627e-09
6.51804e-08
1.61703e-10
-1.30377e-09
-3.66712e-10
1.50878e-09
-1.34658e-09
-1.35152e-08
-1.78486e-10
-3.21367e-10
2.83525e-10
2.16329e-10
-1.00988e-08
-8.18087e-09
1.25543e-08
5.72537e-09
7.30258e-10
-2.15023e-09
-8.45721e-09
9.87717e-09
8.02554e-09
9.46033e-10
-8.92813e-09
-4.34387e-11
-2.84202e-09
-7.82886e-09
1.08878e-08
-2.1692e-10
1.13683e-08
-5.86533e-10
-1.93248e-09
-9.9567e-10
9.74804e-10
7.55916e-11
-5.4725e-11
-2.82425e-10
8.69082e-10
4.40765e-10
-1.02742e-09
-5.96496e-10
-4.15027e-11
6.35445e-10
2.55364e-12
1.36655e-11
-1.00814e-09
9.91402e-11
8.95333e-10
-5.66789e-11
-9.25326e-10
7.90892e-10
-1.84173e-08
-1.72409e-09
-5.06894e-10
5.52351e-11
-1.44837e-10
1.34135e-08
-1.32764e-08
3.91494e-09
-4.2582e-10
6.36736e-10
4.02893e-10
-6.13808e-10
-4.06376e-10
-2.28943e-09
1.76284e-09
9.32966e-10
-2.14543e-09
9.72249e-09
-1.14134e-08
-3.79918e-10
-1.97047e-10
7.0071e-11
-8.80067e-09
1.0145e-08
-9.45378e-09
1.1997e-08
-1.70495e-08
4.96762e-09
8.49549e-11
8.73601e-11
-2.06479e-10
-2.608e-10
2.56139e-10
8.91175e-10
-1.7251e-10
-5.96281e-08
7.43072e-08
-1.46791e-08
1.13846e-09
-3.50715e-10
-1.3078e-09
5.20059e-10
1.10885e-09
1.03136e-08
-1.37307e-08
2.30827e-09
-1.00402e-09
7.09246e-09
-8.56303e-09
2.47459e-09
-6.50288e-09
5.77082e-09
5.5076e-09
-4.77554e-09
-7.17941e-09
-2.16524e-09
2.07886e-09
7.26579e-09
-1.82444e-10
-9.09238e-08
9.13091e-08
-2.02858e-10
-2.56737e-10
-8.97637e-08
9.01709e-08
-1.50512e-10
8.30915e-08
-1.49989e-09
1.15924e-10
-8.17075e-08
-3.14557e-09
-2.09804e-10
7.9285e-10
9.11647e-10
-5.66038e-10
4.02007e-09
-1.61537e-09
3.30336e-09
-5.70806e-09
-1.0925e-09
9.97921e-10
-1.49793e-08
6.61562e-09
9.34408e-09
9.87741e-10
-1.00463e-08
-2.85526e-10
-6.27808e-09
1.29877e-08
1.39702e-09
-8.10667e-09
1.4315e-08
-4.16717e-09
3.36091e-09
-1.35088e-08
1.54244e-08
1.73436e-09
-1.72993e-09
-5.11477e-10
-1.99324e-08
-7.18603e-09
2.76299e-08
1.38585e-08
-8.34413e-09
-2.15729e-09
7.70237e-09
-1.18232e-08
-9.67958e-11
2.15605e-10
-1.42661e-09
-3.64679e-08
-2.31602e-08
8.06674e-09
8.98917e-11
3.84034e-09
-6.99372e-09
1.07947e-08
6.34404e-09
-6.79781e-10
3.84136e-10
5.48356e-10
-2.52711e-10
5.90687e-09
-4.65313e-09
3.57069e-09
-4.82443e-09
-6.04715e-10
-7.03607e-10
3.00183e-10
7.8748e-10
-7.29844e-10
-1.25967e-10
-1.09252e-09
9.36067e-10
-1.77106e-08
2.49412e-09
1.47927e-09
1.37372e-08
2.85898e-10
-7.99486e-10
-1.66193e-10
-3.91895e-09
-1.48493e-08
1.05764e-09
5.66652e-09
1.1833e-08
-5.23594e-09
-1.22635e-08
1.64606e-08
5.80697e-10
-1.59282e-08
-1.11308e-09
-7.64524e-10
5.35981e-10
6.12678e-10
-7.54249e-10
3.99595e-10
3.54654e-10
-7.17365e-09
-3.74314e-09
4.41391e-09
-3.38668e-10
4.96995e-10
-1.58327e-10
1.31611e-09
-1.53339e-08
-8.2644e-10
9.13059e-09
-1.04496e-08
-1.1137e-09
-8.80217e-10
1.26521e-08
4.39227e-09
-4.13467e-09
-1.29097e-08
2.21108e-10
6.99984e-09
-7.71325e-09
6.48422e-09
-1.87443e-09
-8.58852e-09
7.88888e-09
2.57406e-09
-1.78424e-09
6.09693e-10
-1.36747e-08
-2.02475e-10
-1.36193e-10
-2.8825e-10
1.09974e-09
-7.9909e-09
7.42372e-10
1.73167e-08
-1.59842e-09
-1.34574e-08
1.47225e-08
-1.26509e-09
1.20396e-08
1.40798e-08
-1.56024e-08
-1.0517e-08
-7.38051e-10
1.27498e-09
-5.36929e-10
1.0478e-09
-1.28515e-09
2.37343e-10
1.69152e-09
-2.26525e-09
5.7373e-10
1.73416e-09
-1.43668e-09
-2.97476e-10
-1.12493e-08
4.78209e-10
1.07711e-08
2.43741e-09
-7.03252e-10
8.89891e-09
-1.52234e-08
6.80783e-09
-8.1001e-09
6.35198e-11
3.90997e-09
-4.0582e-10
-2.78241e-09
2.84593e-09
-7.12569e-09
8.45365e-09
-1.32796e-09
-7.9736e-10
4.13691e-09
6.80519e-10
1.72257e-08
-1.45192e-08
-1.59764e-09
-5.59372e-09
5.21793e-09
-1.23959e-09
-2.41057e-10
6.39543e-09
-6.42208e-09
2.66462e-11
7.02958e-09
4.38489e-09
1.67586e-10
-1.59323e-08
1.04511e-08
1.75208e-08
5.69686e-09
8.33256e-09
8.25715e-09
-6.81876e-09
9.80689e-10
-1.223e-08
1.06547e-09
4.33271e-10
-1.277e-08
3.28506e-09
-4.3913e-10
1.2715e-08
-1.21343e-08
-1.55268e-10
-1.01511e-09
-1.37572e-08
7.25085e-09
8.79294e-10
-3.86861e-11
-8.92254e-09
5.16611e-09
-3.10908e-08
-1.25266e-08
-2.57352e-09
1.34286e-09
1.38795e-08
1.09475e-08
-1.06443e-08
-1.41827e-08
1.58393e-08
-3.12357e-09
-1.27157e-08
1.7016e-09
3.88023e-09
-1.37423e-09
-9.63649e-10
-9.93841e-10
1.3137e-09
6.43793e-10
-2.86243e-10
4.1338e-10
4.21219e-10
6.21355e-08
-6.21608e-08
2.52916e-11
6.20547e-08
-6.23589e-08
3.04145e-10
8.36986e-10
6.47508e-08
-6.55798e-08
8.28958e-10
6.41411e-08
6.09699e-10
-2.23321e-10
-6.65284e-08
9.48616e-10
-6.20432e-08
6.19095e-08
1.33697e-10
1.32078e-09
-6.78492e-08
-6.22028e-08
1.596e-10
1.22064e-08
-1.03505e-09
1.64623e-09
-3.7203e-09
3.10912e-09
4.12548e-10
-1.27403e-09
1.10323e-09
-7.71423e-10
1.47403e-09
-1.74267e-09
1.04006e-09
1.5254e-09
-1.68337e-09
3.73579e-10
-9.27038e-11
-3.34694e-09
3.01912e-09
-2.27153e-09
2.59935e-09
-7.75867e-10
-2.84853e-09
2.58935e-09
-3.8023e-09
-5.62638e-09
6.42476e-10
-7.24671e-10
1.40219e-09
1.17508e-09
-6.59233e-09
8.01512e-09
2.9621e-09
2.01804e-08
-4.34116e-09
-8.03598e-10
3.01105e-10
1.14497e-09
-1.0082e-08
-2.63859e-08
5.4545e-09
-4.44812e-09
-3.11464e-09
2.10826e-09
1.3142e-10
1.57894e-11
4.88235e-10
-2.76786e-09
3.4831e-09
8.6912e-09
8.80214e-10
-5.01737e-10
2.20512e-09
-2.47925e-09
2.17952e-09
1.47599e-08
1.31994e-08
-2.69837e-08
3.25126e-08
6.20542e-09
-2.28666e-08
-1.03225e-08
1.81603e-08
-1.77382e-08
1.05253e-08
-2.31391e-10
-5.85897e-11
-1.39339e-09
-1.87082e-09
-2.71864e-09
3.90479e-09
1.47809e-08
-6.02238e-10
-1.3569e-08
-1.23401e-10
-2.741e-09
1.58692e-11
1.54152e-08
1.7505e-08
1.36372e-08
6.89076e-10
-1.55303e-09
-1.27732e-08
-1.81327e-09
6.01679e-09
1.23018e-08
-7.27846e-10
-1.21259e-09
-3.52985e-09
2.73282e-09
3.81615e-09
2.43286e-09
1.42127e-08
4.13281e-09
-1.39532e-08
1.76004e-08
-1.76184e-09
2.78658e-09
-3.59437e-09
1.87907e-09
-4.62311e-09
1.2895e-08
-1.20161e-08
-1.39336e-08
5.49103e-10
8.76135e-09
-1.89337e-09
1.59063e-09
1.70493e-09
-8.70389e-09
6.0183e-10
-4.42451e-09
-6.05098e-09
1.22032e-08
-1.48561e-08
1.3518e-09
1.66425e-09
-2.19495e-09
1.65075e-08
-1.59768e-08
-9.77662e-10
1.40126e-08
2.85994e-09
-4.15553e-09
-1.39278e-08
7.33366e-09
-1.70694e-08
-8.00242e-09
6.56185e-09
5.85505e-09
1.43744e-08
-9.64641e-09
3.13262e-09
9.08786e-09
9.86741e-09
3.84456e-09
-4.12292e-09
2.1475e-08
-1.88614e-08
4.72007e-09
-1.01707e-08
2.2259e-09
5.48393e-09
1.35957e-08
-9.76012e-11
1.25941e-08
-1.34742e-08
-1.75015e-09
2.34465e-09
-1.44187e-09
8.47367e-10
1.08368e-08
-6.38245e-09
7.37858e-09
-1.05746e-08
1.39163e-09
-4.75412e-09
1.1283e-08
-1.17649e-08
-7.48779e-09
9.03295e-09
9.29168e-09
1.26988e-08
8.95863e-10
-1.36922e-08
1.65749e-09
8.31288e-10
-1.09282e-08
-6.71596e-09
1.01564e-08
-1.68554e-09
2.52312e-09
-8.85672e-09
4.79057e-09
-5.13864e-09
1.13376e-08
-3.49091e-09
-1.15203e-08
3.67363e-09
-4.51599e-09
1.10995e-08
2.06337e-09
1.18475e-09
-5.07243e-09
-1.75086e-08
1.03855e-08
1.21955e-08
8.44431e-10
-1.08162e-08
-9.77831e-09
1.55221e-08
1.23235e-08
2.77007e-09
-9.60962e-09
-1.32223e-08
-2.76248e-10
-1.26037e-08
2.26597e-10
-6.90156e-10
1.13514e-08
1.24245e-08
-8.16193e-09
1.63169e-08
-1.56874e-08
3.5033e-09
-4.51291e-10
1.69341e-09
1.24951e-08
-3.86866e-09
-1.25296e-08
-5.11892e-09
9.99275e-10
4.55291e-09
1.19817e-08
-7.36137e-09
7.91886e-10
-1.31877e-09
1.40624e-09
-1.83762e-09
6.05674e-09
2.59436e-08
-4.0964e-10
-1.15783e-08
1.19879e-08
2.82856e-08
-2.20942e-08
2.19418e-08
1.9417e-08
-1.26081e-08
-2.63113e-09
1.48819e-08
1.96884e-10
-1.21038e-08
-3.02963e-10
-6.02762e-09
-1.94362e-09
2.35033e-09
1.65666e-09
-6.21703e-11
-1.08541e-08
1.10838e-08
-1.67535e-10
2.84181e-09
-5.48615e-09
-1.06955e-08
1.03372e-08
-7.76179e-10
-1.04886e-08
-5.97868e-11
-1.07627e-08
-2.80767e-09
-1.18697e-08
2.25561e-09
7.81073e-09
5.10257e-09
3.81617e-11
-1.15984e-08
1.14981e-08
6.55741e-10
-8.55302e-09
5.25368e-09
-1.09625e-09
2.609e-09
-2.9285e-09
-1.29882e-08
-1.3109e-08
1.27375e-08
-1.01689e-08
-1.58084e-08
1.00449e-08
9.10061e-09
8.62405e-10
2.58743e-09
-1.41657e-08
1.10344e-08
1.70862e-09
4.01793e-09
3.61445e-10
-5.9958e-10
-3.6658e-10
-4.04604e-09
2.66723e-09
-1.3622e-09
3.07107e-10
-3.59049e-10
5.19422e-11
-2.56007e-09
1.27315e-08
2.15207e-09
2.56479e-09
-7.3271e-10
-1.72556e-09
-2.03853e-10
-2.51672e-09
-6.02235e-10
1.27291e-08
9.83913e-09
-4.51485e-10
7.03425e-09
-1.20097e-09
-5.38179e-09
-9.66208e-09
-5.07646e-09
2.38816e-10
6.82908e-11
4.76234e-09
1.3314e-09
-1.691e-08
-5.39219e-10
-8.92234e-10
-2.55152e-09
9.26345e-10
2.70772e-09
6.19351e-08
-8.8091e-11
-6.1847e-08
6.23532e-08
1.88373e-10
-6.25416e-08
-1.4192e-08
2.19783e-11
1.45536e-08
-3.83578e-10
2.81588e-09
-2.01692e-09
2.74773e-09
1.79231e-09
-4.38983e-09
-4.58597e-10
-6.18943e-10
5.0185e-10
-1.35619e-10
5.74499e-10
-4.10101e-10
1.92355e-08
1.11908e-09
-1.55922e-08
-2.69717e-10
-1.95775e-09
1.2224e-08
2.2288e-09
1.75271e-09
5.22231e-09
-1.92439e-09
-7.72386e-08
-2.41767e-08
-4.77874e-09
1.57441e-08
2.31879e-09
-5.96387e-10
-3.28253e-09
-1.3133e-09
6.2084e-10
-5.20132e-10
-1.15245e-08
-3.14512e-10
1.1839e-08
-1.06818e-08
-6.65037e-09
1.06162e-08
-9.31677e-09
8.79262e-09
-4.64085e-11
1.79467e-09
1.10032e-08
-1.07931e-08
-2.1017e-10
7.14338e-10
7.31722e-11
1.00401e-08
9.83952e-10
-1.07042e-09
-2.89293e-10
-1.42427e-08
-5.21226e-10
-1.35234e-08
1.22867e-08
-1.1592e-08
-6.59865e-08
6.49433e-08
1.04324e-09
4.07644e-10
-3.91854e-10
1.17326e-08
-3.75335e-10
1.62856e-11
-2.01431e-09
2.77707e-09
-3.40372e-09
-1.35189e-08
-1.66425e-09
2.57386e-09
-4.74858e-09
-1.38753e-08
1.71389e-09
5.60988e-09
9.48293e-09
-8.81259e-09
-4.0457e-10
2.92343e-11
-9.34616e-09
-1.29445e-08
1.50345e-10
-6.27095e-08
2.38099e-10
6.24714e-08
6.96341e-10
6.34448e-08
-2.2575e-10
-1.14888e-09
-1.43956e-08
1.05613e-10
-6.33756e-08
6.327e-08
1.81366e-10
-6.29258e-08
6.27444e-08
4.91308e-10
6.18056e-08
1.51902e-10
-6.19575e-08
6.16358e-08
1.69736e-10
-8.79057e-08
8.85147e-08
7.40093e-13
9.33935e-08
-9.31013e-08
-2.66957e-10
-8.6645e-08
-4.31786e-10
9.3354e-08
-1.83809e-10
-8.49303e-08
-7.66026e-10
9.34852e-08
1.72986e-10
-5.18052e-10
1.96073e-09
9.23614e-08
-6.9349e-08
6.21492e-08
-6.23316e-08
-6.29663e-08
6.14931e-08
1.42777e-10
-2.99935e-09
2.78815e-09
-1.3742e-08
7.51417e-11
1.63674e-10
2.03245e-09
9.16928e-09
-1.15417e-08
3.82829e-08
-3.44542e-08
-1.65986e-08
1.37955e-08
-7.07986e-11
-2.22647e-10
2.55933e-10
8.73848e-10
-1.67715e-10
3.83321e-10
4.6194e-09
1.03072e-09
-3.77105e-09
-3.34067e-10
3.89301e-10
-2.63996e-10
-2.45587e-09
1.28954e-08
2.29194e-09
-1.44483e-08
-2.47067e-09
-3.5885e-09
5.66751e-09
1.06015e-09
-2.61295e-09
1.41876e-08
-1.18912e-09
-3.35651e-09
4.69118e-09
-8.13915e-09
-1.90686e-08
-1.31794e-08
7.7364e-09
5.99207e-09
-2.99778e-10
-5.27578e-10
3.17768e-09
1.44109e-08
2.03513e-09
-1.56554e-09
-4.56672e-10
4.9997e-10
-2.84355e-10
1.59981e-08
-4.85012e-10
-1.58276e-08
-2.37332e-09
-1.74693e-09
2.95335e-10
-2.25432e-10
3.63828e-09
-1.72955e-08
5.93714e-10
-1.66538e-09
-2.28075e-09
-2.4031e-09
1.53123e-08
-9.06027e-08
-1.39798e-10
9.16892e-08
-1.9168e-10
-8.91795e-08
-4.78511e-10
9.31069e-08
-2.73885e-10
-9.29212e-08
-6.07099e-10
-1.76153e-09
1.63474e-08
9.19914e-08
-1.93661e-10
3.14682e-11
-2.20099e-10
1.03969e-08
2.43117e-09
-8.6991e-09
-1.19599e-08
-5.66856e-09
8.46518e-09
1.39631e-09
-6.89939e-09
-6.22941e-09
9.02443e-09
-1.76636e-10
1.01595e-08
1.93509e-08
-1.77381e-08
3.04117e-09
-1.2502e-08
3.01362e-09
-6.99489e-08
3.96237e-09
-2.03539e-08
-1.29822e-08
-5.73679e-10
-5.92184e-09
-1.53432e-08
9.16122e-09
-1.52298e-08
5.39201e-10
4.55524e-10
-1.61372e-09
-1.62592e-08
1.68104e-08
8.37294e-09
-8.58275e-09
-5.31138e-09
1.50942e-08
-1.70843e-09
8.01773e-10
-1.34871e-09
4.23771e-10
1.19915e-08
3.35731e-09
7.09499e-08
-1.8042e-08
8.86372e-10
-1.47647e-08
-2.83874e-10
-3.31126e-10
-1.37251e-10
6.09577e-08
-6.12316e-08
-6.33441e-08
-6.31195e-08
-6.25411e-11
-2.61417e-10
-9.25972e-08
-6.04599e-08
6.24206e-08
6.50592e-08
-6.02869e-08
6.45412e-08
-6.04707e-08
6.37752e-08
-6.07376e-08
6.33434e-08
9.23207e-08
3.561e-10
-6.44044e-09
7.51011e-08
-6.53033e-08
8.54925e-11
-8.54925e-11
1.35148e-09
-3.65933e-10
1.54989e-08
-9.1582e-11
9.1582e-11
4.43703e-10
1.57026e-09
1.38585e-08
1.31585e-08
-2.77855e-09
3.75893e-09
6.32889e-09
1.94503e-09
4.37946e-10
-3.0844e-10
-2.93399e-09
1.44451e-08
1.48311e-08
-4.27115e-09
1.17667e-08
2.40236e-10
1.91005e-10
2.92139e-09
-9.71601e-10
-1.70311e-09
-5.91303e-09
-1.57195e-10
-4.60217e-10
1.52683e-08
3.33056e-10
1.29526e-10
1.55133e-08
-2.58991e-08
1.74135e-08
2.59732e-09
1.42205e-09
2.36571e-09
-3.65462e-09
1.90982e-08
-1.78093e-08
-1.16983e-10
6.51468e-10
-1.44497e-09
-7.92193e-08
-7.0794e-08
1.43613e-09
-9.28324e-10
7.05271e-10
2.28403e-08
1.84524e-08
-6.44807e-09
1.17663e-10
-4.4393e-09
-2.31685e-09
2.99724e-08
1.55853e-10
1.4818e-08
7.35807e-08
8.50542e-11
5.5023e-10
-2.01433e-10
-2.65886e-10
-3.8144e-09
2.42225e-08
-1.48276e-08
1.15927e-09
-1.39669e-08
-7.81813e-11
2.02361e-08
-2.8708e-08
9.03042e-10
2.31786e-09
-5.55623e-10
)
;

boundaryField
{
    back
    {
        type            empty;
        value           nonuniform 0();
    }
    ingreso
    {
        type            calculated;
        value           nonuniform List<scalar> 
14
(
-1.54286e-08
-1.54288e-08
-1.54288e-08
-1.54288e-08
-1.54286e-08
-1.54283e-08
-1.54288e-08
-1.54288e-08
-1.54286e-08
-1.54286e-08
-1.54288e-08
-1.5428e-08
-1.5428e-08
-1.54286e-08
)
;
    }
    salida
    {
        type            calculated;
        value           nonuniform List<scalar> 2(1.01415e-07 1.14584e-07);
    }
    front
    {
        type            empty;
        value           nonuniform 0();
    }
    defaultFaces
    {
        type            calculated;
        value           uniform 0;
    }
}


// ************************************************************************* //
