# Residuals   
# Time        	p             	Ux            	Uy            
44.5          	N/A	N/A
44.5098       	1.395493e-01	1.589861e-03	1.870412e-03
44.5196       	1.133098e-01	2.140097e-03	1.991859e-03
44.5294       	2.259429e-02	1.582127e-03	1.112883e-03
44.5392       	1.986181e-02	1.491198e-03	1.151521e-03
44.549        	1.546911e-02	1.461001e-03	1.085915e-03
44.5588       	1.484517e-02	1.452024e-03	1.084588e-03
44.5686       	1.405600e-02	1.444907e-03	1.059896e-03
44.5782       	1.568686e-02	1.410942e-03	1.036156e-03
44.5878       	1.703332e-02	1.443007e-03	1.081430e-03
44.5974       	1.501085e-02	1.433496e-03	1.020397e-03
44.607        	1.432943e-02	1.432285e-03	1.066085e-03
44.6166       	1.471016e-02	1.434822e-03	1.044675e-03
44.6261       	1.360762e-02	1.432938e-03	1.056451e-03
44.6357       	1.470038e-02	1.447530e-03	1.058823e-03
44.6453       	1.444241e-02	1.434002e-03	1.080585e-03
44.6549       	1.359188e-02	1.432020e-03	1.064257e-03
44.6645       	1.363608e-02	1.432039e-03	1.058966e-03
44.6741       	1.377121e-02	1.436478e-03	1.056200e-03
44.6837       	1.423455e-02	1.435270e-03	1.054912e-03
44.6932       	1.564480e-02	1.431224e-03	1.056025e-03
44.7028       	1.451349e-02	1.423480e-03	1.045733e-03
44.7124       	1.537569e-02	1.412147e-03	1.056501e-03
44.722        	1.410188e-02	1.407031e-03	1.060613e-03
44.7316       	1.406197e-02	1.412544e-03	1.064907e-03
44.7412       	1.480195e-02	1.414092e-03	1.075478e-03
44.7508       	1.455346e-02	1.419626e-03	1.077115e-03
44.7603       	1.337962e-02	1.419519e-03	1.077476e-03
44.7699       	1.365481e-02	1.419870e-03	1.072576e-03
44.7799       	1.813934e-02	1.486935e-03	1.118374e-03
44.7899       	1.676102e-02	1.477123e-03	1.254486e-03
44.7999       	1.571107e-02	1.476800e-03	1.147176e-03
44.8099       	1.515846e-02	1.481876e-03	1.217657e-03
44.8199       	1.438581e-02	1.489660e-03	1.163707e-03
44.83         	1.474515e-02	1.481117e-03	1.177107e-03
44.84         	1.377560e-02	1.463142e-03	1.147435e-03
44.85         	1.499474e-02	1.461171e-03	1.164105e-03
44.86         	1.529311e-02	1.456703e-03	1.170980e-03
44.87         	1.439513e-02	1.458461e-03	1.161578e-03
44.88         	1.516036e-02	1.454279e-03	1.175473e-03
44.89         	1.557997e-02	1.449450e-03	1.176589e-03
44.9          	1.591413e-02	1.456819e-03	1.176251e-03
44.91         	1.595886e-02	1.464940e-03	1.167543e-03
44.92         	1.564302e-02	1.469070e-03	1.171916e-03
44.93         	1.589546e-02	1.458446e-03	1.180608e-03
44.94         	1.635060e-02	1.455629e-03	1.181520e-03
44.95         	1.661733e-02	1.458446e-03	1.180574e-03
44.96         	1.644057e-02	1.466615e-03	1.181500e-03
44.97         	1.650847e-02	1.479816e-03	1.177113e-03
44.98         	1.597636e-02	1.486676e-03	1.161707e-03
44.99         	1.767826e-02	1.490802e-03	1.161990e-03
45            	1.691940e-02	1.483330e-03	1.175248e-03
45.0102       	1.788276e-02	1.514503e-03	1.193513e-03
45.0204       	1.704998e-02	1.513300e-03	1.269122e-03
45.0306       	1.655120e-02	1.521006e-03	1.242727e-03
45.0408       	1.535318e-02	1.519104e-03	1.242187e-03
45.051        	1.562094e-02	1.523368e-03	1.241273e-03
45.061        	1.937565e-02	1.477963e-03	1.225230e-03
45.071        	1.855368e-02	1.488125e-03	1.250148e-03
45.081        	1.723614e-02	1.477908e-03	1.209226e-03
45.0909       	1.529605e-02	1.480565e-03	1.216612e-03
45.1009       	1.574008e-02	1.469848e-03	1.183634e-03
45.1109       	1.601775e-02	1.469640e-03	1.183753e-03
45.1209       	1.681757e-02	1.474165e-03	1.177297e-03
45.1308       	1.580972e-02	1.482337e-03	1.192277e-03
45.1408       	1.422376e-02	1.482478e-03	1.187716e-03
45.1511       	1.791697e-02	1.519157e-03	1.224600e-03
45.1613       	1.847182e-02	1.511552e-03	1.331374e-03
45.1716       	1.550679e-02	1.532580e-03	1.281332e-03
45.1819       	1.479117e-02	1.530032e-03	1.349571e-03
45.1921       	1.631517e-02	1.537734e-03	1.333603e-03
45.2024       	1.674092e-02	1.557952e-03	1.292004e-03
45.2127       	1.670521e-02	1.577349e-03	1.299436e-03
45.2229       	1.730737e-02	1.596222e-03	1.360863e-03
45.2332       	1.681285e-02	1.614743e-03	1.349302e-03
45.2434       	1.769427e-02	1.612026e-03	1.295555e-03
45.2537       	1.761003e-02	1.608535e-03	1.294495e-03
45.264        	1.774329e-02	1.612057e-03	1.335115e-03
45.2742       	1.879215e-02	1.613346e-03	1.328094e-03
45.2845       	1.874420e-02	1.613989e-03	1.281507e-03
45.2948       	1.892246e-02	1.621566e-03	1.313959e-03
45.305        	1.850900e-02	1.643153e-03	1.355712e-03
45.3153       	1.894152e-02	1.656970e-03	1.345591e-03
45.325        	2.448663e-02	1.560451e-03	1.246817e-03
45.3347       	2.184331e-02	1.572493e-03	1.356235e-03
45.3444       	1.852706e-02	1.557084e-03	1.216151e-03
45.3542       	1.736892e-02	1.553811e-03	1.235424e-03
45.3633       	2.368687e-02	1.449592e-03	1.123793e-03
45.3724       	1.992363e-02	1.471396e-03	1.281481e-03
45.3815       	1.775160e-02	1.443058e-03	1.086543e-03
45.3906       	1.770198e-02	1.450895e-03	1.172716e-03
45.3997       	1.773905e-02	1.463740e-03	1.088491e-03
45.4089       	1.688035e-02	1.456805e-03	1.174817e-03
45.418        	1.702495e-02	1.456431e-03	1.085918e-03
45.4271       	1.788486e-02	1.455768e-03	1.081237e-03
45.4362       	1.725268e-02	1.458153e-03	1.082692e-03
45.4453       	1.672348e-02	1.447350e-03	1.084100e-03
45.4544       	1.575057e-02	1.445852e-03	1.061177e-03
45.4635       	1.571661e-02	1.433799e-03	1.065639e-03
45.4727       	2.189453e-02	1.474759e-03	1.100569e-03
45.4818       	1.592745e-02	1.441442e-03	1.142103e-03
45.4909       	1.954248e-02	1.388483e-03	1.145788e-03
45.5          	1.581742e-02	1.377633e-03	1.219947e-03
45.5094       	1.911958e-02	1.428318e-03	1.154061e-03
45.5189       	1.675475e-02	1.422211e-03	1.156725e-03
45.5283       	1.668382e-02	1.431149e-03	1.193138e-03
45.5379       	1.721229e-02	1.461096e-03	1.124271e-03
45.5476       	1.659171e-02	1.471009e-03	1.230605e-03
45.5572       	1.710438e-02	1.524493e-03	1.188233e-03
45.5668       	1.650513e-02	1.497440e-03	1.191069e-03
45.5764       	1.577216e-02	1.447714e-03	1.134905e-03
45.5863       	1.679728e-02	1.442633e-03	1.152617e-03
45.5961       	1.553462e-02	1.438874e-03	1.139339e-03
45.606        	1.710337e-02	1.440759e-03	1.235250e-03
45.6158       	1.613958e-02	1.423949e-03	1.148663e-03
45.6257       	1.691049e-02	1.423666e-03	1.176457e-03
45.6355       	1.707762e-02	1.427797e-03	1.173057e-03
45.6457       	1.911389e-02	1.473202e-03	1.196551e-03
45.6558       	1.881166e-02	1.470964e-03	1.197256e-03
45.6659       	1.815281e-02	1.469659e-03	1.272675e-03
45.676        	1.783270e-02	1.474478e-03	1.209841e-03
45.6862       	1.771570e-02	1.467930e-03	1.203771e-03
45.6966       	1.879495e-02	1.522414e-03	1.229316e-03
45.7071       	1.862964e-02	1.510081e-03	1.297082e-03
45.7175       	1.730496e-02	1.505225e-03	1.308407e-03
45.728        	1.825289e-02	1.510831e-03	1.272670e-03
45.7385       	1.695238e-02	1.491169e-03	1.192089e-03
45.7489       	1.504426e-02	1.487442e-03	1.207242e-03
45.7594       	1.668509e-02	1.482911e-03	1.181167e-03
45.7698       	1.630706e-02	1.479358e-03	1.183027e-03
45.7803       	1.806955e-02	1.495359e-03	1.177630e-03
45.7908       	1.534287e-02	1.500131e-03	1.233053e-03
45.8012       	1.541155e-02	1.490302e-03	1.236186e-03
45.8117       	1.632085e-02	1.479555e-03	1.181313e-03
45.8222       	1.566835e-02	1.485520e-03	1.216354e-03
45.8326       	1.688757e-02	1.506711e-03	1.240765e-03
45.8431       	1.597933e-02	1.526899e-03	1.197147e-03
45.8535       	1.517861e-02	1.537085e-03	1.219300e-03
45.864        	1.626271e-02	1.534313e-03	1.207389e-03
45.8745       	1.644078e-02	1.545246e-03	1.209813e-03
45.8849       	1.570547e-02	1.560739e-03	1.307812e-03
45.8954       	1.734217e-02	1.578922e-03	1.307811e-03
45.9058       	1.671031e-02	1.595755e-03	1.261965e-03
45.9163       	1.656657e-02	1.615432e-03	1.264148e-03
45.9268       	1.648729e-02	1.622980e-03	1.249903e-03
45.9372       	1.532553e-02	1.620673e-03	1.260957e-03
45.9477       	1.609975e-02	1.629034e-03	1.349938e-03
45.9582       	1.538058e-02	1.631867e-03	1.330330e-03
45.9686       	1.625916e-02	1.637393e-03	1.276052e-03
45.9791       	1.710648e-02	1.644223e-03	1.283080e-03
45.9895       	1.781935e-02	1.650680e-03	1.297974e-03
46            	1.836457e-02	1.648838e-03	1.328980e-03
46.0109       	2.117096e-02	1.708783e-03	1.378522e-03
46.0215       	2.276967e-02	1.671153e-03	1.395359e-03
46.0321       	2.053772e-02	1.680141e-03	1.409640e-03
46.0425       	2.035361e-02	1.654285e-03	1.263403e-03
46.0529       	2.032800e-02	1.666824e-03	1.412146e-03
46.0631       	1.957571e-02	1.639902e-03	1.391767e-03
46.073        	1.911641e-02	1.614098e-03	1.254050e-03
46.083        	2.054185e-02	1.616254e-03	1.391308e-03
46.0926       	2.348759e-02	1.567044e-03	1.253806e-03
46.1023       	2.023004e-02	1.548316e-03	1.348746e-03
46.1118       	1.989880e-02	1.497666e-03	1.224971e-03
46.1213       	2.461948e-02	1.519867e-03	1.319780e-03
46.1308       	1.843602e-02	1.527345e-03	1.236096e-03
46.1402       	1.724390e-02	1.512571e-03	1.268281e-03
46.1497       	1.699707e-02	1.492968e-03	1.213533e-03
46.1592       	1.736387e-02	1.478800e-03	1.194732e-03
46.1686       	1.694368e-02	1.475503e-03	1.182253e-03
46.1781       	2.185826e-02	1.450238e-03	1.205553e-03
46.1876       	1.942154e-02	1.449011e-03	1.222237e-03
46.197        	1.810423e-02	1.424344e-03	1.196813e-03
46.2068       	2.068458e-02	1.465701e-03	1.232637e-03
46.2166       	2.080018e-02	1.449097e-03	1.226636e-03
46.2263       	1.708559e-02	1.473062e-03	1.328978e-03
46.2361       	2.120559e-02	1.431797e-03	1.213292e-03
46.2459       	2.030864e-02	1.445964e-03	1.237028e-03
46.2561       	2.387294e-02	1.510149e-03	1.267268e-03
46.2662       	1.991572e-02	1.509615e-03	1.360658e-03
46.2764       	1.970205e-02	1.512841e-03	1.342341e-03
46.2866       	1.920310e-02	1.517902e-03	1.324841e-03
46.2967       	1.767381e-02	1.522260e-03	1.281575e-03
46.3069       	1.805739e-02	1.511923e-03	1.249281e-03
46.317        	2.174146e-02	1.507397e-03	1.261787e-03
46.3272       	2.151521e-02	1.508307e-03	1.257976e-03
46.338        	2.487613e-02	1.569118e-03	1.321506e-03
46.3488       	2.190417e-02	1.565591e-03	1.439473e-03
46.3596       	2.025204e-02	1.567262e-03	1.413774e-03
46.3704       	2.148162e-02	1.554460e-03	1.353298e-03
46.3812       	2.284908e-02	1.559571e-03	1.273285e-03
46.392        	1.943259e-02	1.545664e-03	1.288492e-03
46.4028       	2.058952e-02	1.526567e-03	1.226231e-03
46.4125       	3.284579e-02	1.378045e-03	1.203633e-03
46.4222       	2.719647e-02	1.425050e-03	1.523422e-03
46.432        	2.105924e-02	1.368432e-03	1.204077e-03
46.4417       	1.735892e-02	1.353885e-03	1.231594e-03
46.4514       	1.834726e-02	1.348065e-03	1.105080e-03
46.4611       	1.781625e-02	1.326737e-03	1.129725e-03
46.4708       	1.668340e-02	1.311305e-03	1.077082e-03
46.4806       	1.612593e-02	1.317715e-03	1.071016e-03
46.4903       	1.693051e-02	1.328197e-03	1.132853e-03
46.5          	1.765795e-02	1.320706e-03	1.131484e-03
46.5096       	1.843983e-02	1.312654e-03	1.151822e-03
46.5192       	1.714913e-02	1.316139e-03	1.172996e-03
46.5288       	1.832341e-02	1.318851e-03	1.162606e-03
46.5385       	1.882762e-02	1.328016e-03	1.199047e-03
46.5481       	1.661896e-02	1.348798e-03	1.133046e-03
46.5577       	1.797158e-02	1.352415e-03	1.127725e-03
46.5673       	2.149597e-02	1.348306e-03	1.099976e-03
46.5769       	1.805313e-02	1.308858e-03	1.092471e-03
46.5865       	1.655225e-02	1.314009e-03	1.061475e-03
46.5962       	1.799565e-02	1.331311e-03	1.069576e-03
46.6058       	1.564698e-02	1.321171e-03	1.059655e-03
46.6154       	1.564295e-02	1.329732e-03	1.083840e-03
46.625        	1.555323e-02	1.328643e-03	1.066548e-03
46.6346       	1.592216e-02	1.332860e-03	1.061452e-03
46.6442       	1.650245e-02	1.340168e-03	1.067548e-03
46.6538       	1.846797e-02	1.390188e-03	1.066965e-03
46.6635       	1.714232e-02	1.385611e-03	1.106142e-03
46.6731       	1.626177e-02	1.378435e-03	1.090589e-03
46.6827       	1.459385e-02	1.389979e-03	1.050436e-03
46.6923       	1.375612e-02	1.374139e-03	1.058801e-03
46.7019       	1.407106e-02	1.366054e-03	1.059779e-03
46.7115       	1.560271e-02	1.387962e-03	1.075041e-03
46.7212       	1.434318e-02	1.385871e-03	1.069138e-03
46.7308       	1.500900e-02	1.394298e-03	1.074245e-03
46.7404       	1.532421e-02	1.415486e-03	1.076478e-03
46.75         	1.471539e-02	1.423810e-03	1.075590e-03
46.7596       	1.479714e-02	1.413770e-03	1.089370e-03
46.7692       	1.449811e-02	1.405213e-03	1.089110e-03
46.7788       	1.418365e-02	1.403493e-03	1.077695e-03
46.7885       	1.597026e-02	1.434317e-03	1.095497e-03
46.7981       	1.584915e-02	1.437666e-03	1.099127e-03
46.8077       	1.543539e-02	1.438240e-03	1.099854e-03
46.8173       	1.414245e-02	1.440587e-03	1.091845e-03
46.8269       	1.429305e-02	1.439478e-03	1.097199e-03
46.8365       	1.555675e-02	1.442317e-03	1.092490e-03
46.8462       	1.605035e-02	1.449455e-03	1.087337e-03
46.8558       	1.593324e-02	1.461770e-03	1.094423e-03
46.8654       	1.515659e-02	1.466662e-03	1.116740e-03
46.875        	1.488192e-02	1.467834e-03	1.106302e-03
46.8846       	1.424410e-02	1.464218e-03	1.106160e-03
46.8942       	1.525349e-02	1.466321e-03	1.106886e-03
46.9038       	1.542990e-02	1.472515e-03	1.113584e-03
46.9135       	1.557083e-02	1.468641e-03	1.110636e-03
46.9231       	1.515558e-02	1.463108e-03	1.123894e-03
46.9327       	1.536189e-02	1.459860e-03	1.143032e-03
46.9411       	3.396294e-02	1.292150e-03	1.090208e-03
46.9495       	2.655020e-02	1.360713e-03	1.327899e-03
46.9579       	1.827456e-02	1.315711e-03	1.070205e-03
46.9663       	1.587080e-02	1.327323e-03	1.157431e-03
46.9748       	1.545113e-02	1.332866e-03	1.156144e-03
46.9832       	1.575630e-02	1.333948e-03	1.205351e-03
46.9916       	1.574790e-02	1.328150e-03	1.045562e-03
47            	1.480731e-02	1.326717e-03	1.331983e-03
47.0093       	3.003256e-02	1.459677e-03	1.255866e-03
47.0185       	2.241032e-02	1.448474e-03	1.267028e-03
47.0278       	1.953915e-02	1.449964e-03	1.555820e-03
47.037        	1.747512e-02	1.461455e-03	1.200737e-03
47.0465       	1.825724e-02	1.493835e-03	1.379321e-03
47.0559       	1.842651e-02	1.497881e-03	1.331239e-03
47.0654       	1.585247e-02	1.501182e-03	1.405893e-03
47.075        	1.625409e-02	1.529341e-03	1.323068e-03
47.0847       	1.657693e-02	1.512037e-03	1.453085e-03
47.0946       	1.810991e-02	1.553620e-03	1.316742e-03
47.1045       	1.634840e-02	1.545069e-03	1.495800e-03
47.1144       	1.780296e-02	1.544431e-03	1.304462e-03
47.1245       	2.062751e-02	1.608325e-03	1.426857e-03
47.1347       	1.805494e-02	1.608679e-03	1.353445e-03
47.1451       	1.986638e-02	1.651862e-03	1.446396e-03
47.1555       	2.001633e-02	1.636458e-03	1.361992e-03
47.166        	1.904931e-02	1.648224e-03	1.438257e-03
47.1764       	1.753870e-02	1.660007e-03	1.299984e-03
47.1872       	1.967237e-02	1.716594e-03	1.402005e-03
47.198        	2.068881e-02	1.714022e-03	1.361914e-03
47.2088       	2.080008e-02	1.728037e-03	1.481013e-03
47.2196       	1.787411e-02	1.755263e-03	1.347689e-03
47.2303       	1.969306e-02	1.748593e-03	1.437127e-03
47.2411       	1.825976e-02	1.731410e-03	1.294892e-03
47.2519       	1.633310e-02	1.708830e-03	1.298517e-03
47.2627       	1.644930e-02	1.694324e-03	1.259495e-03
47.2735       	1.735151e-02	1.679581e-03	1.286678e-03
47.2843       	1.796919e-02	1.662211e-03	1.274226e-03
47.2951       	1.681620e-02	1.644013e-03	1.263306e-03
47.3053       	2.062207e-02	1.551136e-03	1.212401e-03
47.3156       	1.865447e-02	1.564225e-03	1.282144e-03
47.3258       	1.613349e-02	1.537602e-03	1.373843e-03
47.336        	1.664035e-02	1.533833e-03	1.221371e-03
47.3463       	1.858681e-02	1.541785e-03	1.231259e-03
47.3565       	1.769109e-02	1.522272e-03	1.206054e-03
47.3668       	1.588384e-02	1.524843e-03	1.235813e-03
47.377        	1.663400e-02	1.517510e-03	1.193006e-03
47.3873       	1.627448e-02	1.522499e-03	1.191648e-03
47.3975       	1.617020e-02	1.525409e-03	1.221572e-03
47.4078       	1.709705e-02	1.525054e-03	1.209411e-03
47.418        	1.652659e-02	1.530967e-03	1.227070e-03
47.4283       	1.482448e-02	1.527712e-03	1.216015e-03
47.4385       	1.664840e-02	1.519289e-03	1.255227e-03
47.4488       	1.541303e-02	1.528010e-03	1.237068e-03
47.459        	1.665412e-02	1.522858e-03	1.276378e-03
47.4693       	2.307440e-02	1.587690e-03	1.266121e-03
47.4795       	2.018328e-02	1.549943e-03	1.310308e-03
47.4898       	1.730711e-02	1.540777e-03	1.247754e-03
47.5          	1.794583e-02	1.541774e-03	1.258307e-03
47.5104       	1.837777e-02	1.575261e-03	1.263556e-03
47.5208       	1.884780e-02	1.584993e-03	1.289610e-03
47.531        	2.075336e-02	1.567202e-03	1.293009e-03
47.5412       	1.875588e-02	1.592047e-03	1.267011e-03
47.5514       	1.918305e-02	1.611364e-03	1.284415e-03
47.5614       	2.317490e-02	1.635970e-03	1.273639e-03
47.5714       	2.135127e-02	1.600161e-03	1.295641e-03
47.5811       	1.804030e-02	1.548395e-03	1.269810e-03
47.5908       	1.634587e-02	1.545561e-03	1.245400e-03
47.6004       	1.735414e-02	1.502583e-03	1.223731e-03
47.6099       	1.762071e-02	1.516278e-03	1.197266e-03
47.6192       	2.271791e-02	1.506581e-03	1.187082e-03
47.6284       	1.910738e-02	1.496776e-03	1.144475e-03
47.6377       	1.710116e-02	1.484192e-03	1.185864e-03
47.647        	1.595560e-02	1.472101e-03	1.100542e-03
47.6563       	1.580444e-02	1.468197e-03	1.098461e-03
47.6656       	1.731429e-02	1.471894e-03	1.087122e-03
47.6749       	1.587462e-02	1.483543e-03	1.116103e-03
47.6842       	1.586693e-02	1.477381e-03	1.089805e-03
47.6935       	1.628652e-02	1.475025e-03	1.109113e-03
47.7028       	1.522757e-02	1.473986e-03	1.088096e-03
47.712        	1.648192e-02	1.469092e-03	1.111049e-03
47.7213       	2.086848e-02	1.508116e-03	1.141958e-03
47.7306       	2.077315e-02	1.494466e-03	1.176129e-03
47.7399       	1.826479e-02	1.462581e-03	1.157217e-03
47.7492       	1.528814e-02	1.474941e-03	1.144159e-03
47.7585       	1.550185e-02	1.475887e-03	1.133447e-03
47.7678       	1.696868e-02	1.480974e-03	1.130215e-03
47.7771       	1.672214e-02	1.493642e-03	1.136322e-03
47.7864       	1.511568e-02	1.509377e-03	1.148325e-03
47.7956       	1.540926e-02	1.519823e-03	1.137173e-03
47.8049       	1.728822e-02	1.574759e-03	1.171264e-03
47.8142       	1.587519e-02	1.579546e-03	1.151800e-03
47.8235       	1.805692e-02	1.531674e-03	1.166153e-03
47.8328       	1.465102e-02	1.511235e-03	1.157309e-03
47.8421       	1.568240e-02	1.501201e-03	1.162681e-03
47.8514       	1.571650e-02	1.511915e-03	1.146861e-03
47.8607       	1.698891e-02	1.516204e-03	1.164631e-03
47.87         	1.687841e-02	1.525094e-03	1.157499e-03
47.8792       	1.777485e-02	1.507866e-03	1.149584e-03
47.8885       	1.600361e-02	1.503450e-03	1.139266e-03
47.8978       	1.455090e-02	1.504823e-03	1.130051e-03
47.9071       	1.613471e-02	1.495587e-03	1.139438e-03
47.9164       	1.719630e-02	1.489135e-03	1.149299e-03
47.9257       	1.706104e-02	1.474739e-03	1.142665e-03
47.935        	1.524822e-02	1.480795e-03	1.129293e-03
47.9443       	1.617847e-02	1.483283e-03	1.174290e-03
47.9536       	1.581547e-02	1.483686e-03	1.137959e-03
47.9628       	1.551596e-02	1.501664e-03	1.142233e-03
47.9721       	1.720968e-02	1.502170e-03	1.140517e-03
47.9791       	6.681732e-02	1.162169e-03	1.053105e-03
47.9861       	4.247909e-02	1.287515e-03	1.305682e-03
47.993        	2.209409e-02	1.161856e-03	1.257262e-03
48            	1.874916e-02	1.166350e-03	1.498295e-03
48.0078       	3.517554e-02	1.307307e-03	1.025279e-03
48.0164       	2.436013e-02	1.425701e-03	1.134874e-03
48.0257       	1.970313e-02	1.520357e-03	1.414844e-03
48.035        	2.164799e-02	1.512385e-03	1.320832e-03
48.0443       	1.756066e-02	1.495248e-03	1.220532e-03
48.0538       	1.573953e-02	1.507056e-03	1.118929e-03
48.0633       	1.592977e-02	1.484075e-03	1.187753e-03
48.0728       	1.623316e-02	1.481751e-03	1.093487e-03
48.0825       	1.756751e-02	1.507882e-03	1.139918e-03
48.0922       	1.598527e-02	1.521144e-03	1.180860e-03
48.1022       	1.756082e-02	1.565759e-03	1.151239e-03
48.1121       	1.763216e-02	1.574446e-03	1.267790e-03
48.1221       	1.854374e-02	1.585826e-03	1.162082e-03
48.1323       	1.719042e-02	1.633366e-03	1.236365e-03
48.1425       	1.585817e-02	1.639789e-03	1.257851e-03
48.1527       	1.575750e-02	1.642789e-03	1.204548e-03
48.1629       	1.612646e-02	1.633537e-03	1.215678e-03
48.1735       	1.918121e-02	1.701898e-03	1.243986e-03
48.184        	1.713745e-02	1.713437e-03	1.372333e-03
48.1945       	1.734229e-02	1.725186e-03	1.283930e-03
48.2051       	1.653741e-02	1.724641e-03	1.347373e-03
48.2156       	1.557662e-02	1.725385e-03	1.248352e-03
48.2261       	1.485095e-02	1.716934e-03	1.215139e-03
48.2367       	1.497531e-02	1.705888e-03	1.196509e-03
48.2472       	1.495783e-02	1.690558e-03	1.239004e-03
48.2577       	1.533754e-02	1.689023e-03	1.237490e-03
48.2683       	1.464391e-02	1.675181e-03	1.232558e-03
48.2788       	1.575173e-02	1.661180e-03	1.240459e-03
48.2893       	1.556706e-02	1.649166e-03	1.240628e-03
48.2999       	1.598078e-02	1.650116e-03	1.237536e-03
48.3104       	1.660110e-02	1.639100e-03	1.329756e-03
48.3209       	1.620566e-02	1.646345e-03	1.236978e-03
48.3315       	1.696526e-02	1.656780e-03	1.265378e-03
48.342        	1.639503e-02	1.673803e-03	1.280254e-03
48.3525       	1.589070e-02	1.659613e-03	1.244974e-03
48.3631       	1.516266e-02	1.658105e-03	1.248436e-03
48.3736       	1.427924e-02	1.652829e-03	1.244645e-03
48.3841       	1.502045e-02	1.653359e-03	1.303425e-03
48.3947       	1.670632e-02	1.657147e-03	1.287378e-03
48.4052       	1.616700e-02	1.657797e-03	1.252693e-03
48.4157       	1.637511e-02	1.663242e-03	1.291455e-03
48.4263       	1.662958e-02	1.674752e-03	1.264854e-03
48.4368       	1.493959e-02	1.685662e-03	1.304400e-03
48.4473       	1.531914e-02	1.680143e-03	1.274619e-03
48.4579       	1.676096e-02	1.683187e-03	1.281363e-03
48.4684       	1.696200e-02	1.684222e-03	1.304227e-03
48.4763       	6.833396e-02	1.282884e-03	1.168482e-03
48.4842       	4.558150e-02	1.437349e-03	1.741931e-03
48.4921       	2.026450e-02	1.304250e-03	1.229981e-03
48.5          	1.804829e-02	1.296627e-03	1.352063e-03
48.5088       	3.301074e-02	1.434242e-03	1.314356e-03
48.5184       	2.666831e-02	1.561331e-03	1.890008e-03
48.5282       	2.261254e-02	1.584719e-03	1.756052e-03
48.5381       	1.954906e-02	1.598733e-03	1.344931e-03
48.5477       	1.972928e-02	1.574344e-03	1.778767e-03
48.5573       	1.801462e-02	1.573315e-03	1.263686e-03
48.5667       	1.934412e-02	1.537423e-03	1.412922e-03
48.5761       	1.739848e-02	1.525268e-03	1.465450e-03
48.5854       	1.909800e-02	1.490413e-03	1.261227e-03
48.5946       	1.699535e-02	1.493392e-03	1.424450e-03
48.6038       	1.473580e-02	1.492590e-03	1.235760e-03
48.613        	1.391826e-02	1.480918e-03	1.324496e-03
48.6222       	1.504448e-02	1.468171e-03	1.255546e-03
48.6314       	1.567191e-02	1.456749e-03	1.305037e-03
48.6406       	1.560411e-02	1.451998e-03	1.289299e-03
48.6499       	1.553625e-02	1.439018e-03	1.313390e-03
48.6591       	1.539061e-02	1.435117e-03	1.309953e-03
48.6683       	1.443519e-02	1.428048e-03	1.324751e-03
48.6775       	1.455126e-02	1.425174e-03	1.346384e-03
48.6867       	1.809458e-02	1.437958e-03	1.370283e-03
48.6962       	2.056647e-02	1.475703e-03	1.416728e-03
48.7057       	1.980020e-02	1.445948e-03	1.401661e-03
48.7152       	1.777707e-02	1.451571e-03	1.500515e-03
48.7247       	1.767219e-02	1.461297e-03	1.369503e-03
48.7342       	1.581688e-02	1.462454e-03	1.420057e-03
48.7437       	1.716802e-02	1.463666e-03	1.387537e-03
48.7532       	1.719618e-02	1.463160e-03	1.397904e-03
48.763        	2.166809e-02	1.536329e-03	1.447831e-03
48.7729       	2.028285e-02	1.585855e-03	1.555025e-03
48.7828       	1.974739e-02	1.580825e-03	1.327111e-03
48.7927       	1.886102e-02	1.529966e-03	1.469487e-03
48.8025       	1.741852e-02	1.523042e-03	1.359520e-03
48.8124       	1.736947e-02	1.525737e-03	1.357207e-03
48.8223       	1.864221e-02	1.536795e-03	1.361023e-03
48.8322       	1.666685e-02	1.523850e-03	1.315338e-03
48.842        	1.712907e-02	1.530601e-03	1.302695e-03
48.8519       	1.678991e-02	1.502650e-03	1.323543e-03
48.8618       	1.637120e-02	1.502599e-03	1.345335e-03
48.8716       	1.849908e-02	1.499303e-03	1.282436e-03
48.8815       	1.654765e-02	1.483766e-03	1.317914e-03
48.8914       	1.696791e-02	1.494889e-03	1.274044e-03
48.9013       	1.592323e-02	1.482315e-03	1.269578e-03
48.9111       	1.669119e-02	1.479357e-03	1.271860e-03
48.921        	1.800665e-02	1.473329e-03	1.225816e-03
48.9298       	3.271438e-02	1.313526e-03	1.227387e-03
48.9386       	2.548999e-02	1.370701e-03	1.315470e-03
48.9473       	1.672430e-02	1.330214e-03	1.078891e-03
48.9561       	1.616438e-02	1.320934e-03	1.300821e-03
48.9649       	1.591746e-02	1.319827e-03	1.019430e-03
48.9737       	1.470116e-02	1.312763e-03	1.079283e-03
48.9824       	1.543699e-02	1.323828e-03	1.079645e-03
48.9912       	1.595854e-02	1.326846e-03	1.065296e-03
49            	1.512810e-02	1.331465e-03	1.074561e-03
49.0093       	2.050102e-02	1.396362e-03	1.126558e-03
49.0185       	1.858962e-02	1.407508e-03	1.183429e-03
49.0278       	1.617965e-02	1.409872e-03	1.035066e-03
49.037        	1.713332e-02	1.418256e-03	1.230946e-03
49.0465       	1.594232e-02	1.456462e-03	1.179471e-03
49.0559       	1.610171e-02	1.436072e-03	1.189213e-03
49.0654       	1.564418e-02	1.439659e-03	1.206945e-03
49.0748       	1.567108e-02	1.421328e-03	1.128784e-03
49.0843       	1.426072e-02	1.422808e-03	1.071356e-03
49.0939       	1.673426e-02	1.468157e-03	1.149084e-03
49.1036       	1.625078e-02	1.466441e-03	1.103383e-03
49.1133       	1.586860e-02	1.464699e-03	1.215767e-03
49.1229       	1.559516e-02	1.472772e-03	1.137479e-03
49.1326       	1.590599e-02	1.463348e-03	1.301957e-03
49.1425       	1.840963e-02	1.510210e-03	1.299122e-03
49.1525       	1.698745e-02	1.511807e-03	1.315794e-03
49.1624       	1.782228e-02	1.517214e-03	1.289575e-03
49.1723       	1.624587e-02	1.508802e-03	1.209670e-03
49.1826       	1.782729e-02	1.556084e-03	1.176448e-03
49.1928       	1.618713e-02	1.561091e-03	1.273708e-03
49.2031       	1.578036e-02	1.556903e-03	1.209503e-03
49.2133       	1.496338e-02	1.556514e-03	1.195243e-03
49.2235       	1.680045e-02	1.561202e-03	1.348702e-03
49.2338       	1.743744e-02	1.575549e-03	1.302722e-03
49.244        	1.752495e-02	1.578404e-03	1.296745e-03
49.2543       	1.588137e-02	1.585119e-03	1.341648e-03
49.2645       	1.578059e-02	1.580087e-03	1.214423e-03
49.2747       	1.587322e-02	1.564174e-03	1.247409e-03
49.285        	1.725303e-02	1.560189e-03	1.171661e-03
49.2952       	1.757301e-02	1.574363e-03	1.221518e-03
49.3054       	1.774643e-02	1.584254e-03	1.182802e-03
49.3157       	1.771163e-02	1.591100e-03	1.236249e-03
49.3259       	1.702988e-02	1.586144e-03	1.234478e-03
49.3362       	1.709428e-02	1.597934e-03	1.188411e-03
49.3464       	1.626378e-02	1.600456e-03	1.198069e-03
49.3566       	1.736623e-02	1.575958e-03	1.223527e-03
49.3669       	1.790002e-02	1.570905e-03	1.223685e-03
49.3771       	1.564695e-02	1.578171e-03	1.181799e-03
49.3874       	1.621212e-02	1.579472e-03	1.174875e-03
49.3976       	1.658525e-02	1.580462e-03	1.168359e-03
49.4078       	1.537948e-02	1.569275e-03	1.151004e-03
49.4181       	1.458339e-02	1.558489e-03	1.144921e-03
49.4283       	1.562860e-02	1.548619e-03	1.156735e-03
49.4373       	3.399170e-02	1.364061e-03	1.147584e-03
49.4462       	2.672306e-02	1.402059e-03	1.321826e-03
49.4552       	1.731270e-02	1.354634e-03	1.315218e-03
49.4642       	1.507182e-02	1.350656e-03	1.227550e-03
49.4731       	1.492978e-02	1.338854e-03	1.091392e-03
49.4821       	1.523243e-02	1.329169e-03	9.907239e-04
49.491        	1.429024e-02	1.327399e-03	9.964138e-04
49.5          	1.454691e-02	1.331186e-03	9.852510e-04
49.5094       	2.082448e-02	1.406776e-03	1.043439e-03
49.5189       	1.812804e-02	1.398446e-03	1.102878e-03
49.5281       	1.863411e-02	1.365805e-03	1.190390e-03
49.5374       	1.643567e-02	1.364021e-03	1.041578e-03
49.5466       	1.581448e-02	1.352953e-03	1.086875e-03
49.5559       	1.522516e-02	1.342170e-03	1.090780e-03
49.5651       	1.561503e-02	1.343407e-03	1.065639e-03
49.5746       	1.610328e-02	1.367671e-03	1.098024e-03
49.584        	1.643949e-02	1.362938e-03	1.130876e-03
49.5935       	1.480185e-02	1.361132e-03	1.052456e-03
49.6029       	1.444795e-02	1.362985e-03	1.124242e-03
49.6124       	1.416365e-02	1.354774e-03	1.092686e-03
49.6219       	1.634845e-02	1.360163e-03	1.093499e-03
49.6315       	2.194427e-02	1.415771e-03	1.142499e-03
49.6412       	1.930436e-02	1.378960e-03	1.191408e-03
49.6509       	1.625505e-02	1.381919e-03	1.087634e-03
49.6606       	1.627182e-02	1.381810e-03	1.131327e-03
49.6703       	1.571931e-02	1.390874e-03	1.065860e-03
49.68         	1.604926e-02	1.379912e-03	1.087808e-03
49.6897       	1.631419e-02	1.379770e-03	1.085520e-03
49.6994       	1.668476e-02	1.406081e-03	1.084795e-03
49.7091       	1.871962e-02	1.475257e-03	1.081474e-03
49.7188       	1.646834e-02	1.444036e-03	1.095093e-03
49.7285       	1.680055e-02	1.408688e-03	1.078627e-03
49.7382       	1.570618e-02	1.411070e-03	1.074062e-03
49.7479       	1.515718e-02	1.402361e-03	1.077539e-03
49.7576       	1.556265e-02	1.399722e-03	1.066600e-03
49.7673       	1.780514e-02	1.433849e-03	1.053320e-03
49.777        	1.657442e-02	1.417735e-03	1.069912e-03
49.7867       	1.564457e-02	1.390846e-03	1.055609e-03
49.796        	2.126310e-02	1.334736e-03	1.027708e-03
49.8052       	1.831088e-02	1.344157e-03	1.106843e-03
49.8145       	1.972321e-02	1.347092e-03	1.109007e-03
49.8238       	1.735098e-02	1.345006e-03	1.107552e-03
49.8331       	1.557880e-02	1.341812e-03	1.002958e-03
49.8429       	2.188248e-02	1.420593e-03	1.084707e-03
49.8527       	1.961148e-02	1.423129e-03	1.194315e-03
49.8625       	1.971101e-02	1.416758e-03	1.174136e-03
49.8723       	1.470205e-02	1.424745e-03	1.140371e-03
49.8822       	1.494045e-02	1.412398e-03	1.038782e-03
49.892        	1.496358e-02	1.402794e-03	1.062071e-03
49.9018       	1.529864e-02	1.393243e-03	1.061391e-03