/*--------------------------------*- C++ -*----------------------------------*\
  =========                 |
  \\      /  F ield         | OpenFOAM: The Open Source CFD Toolbox
   \\    /   O peration     | Website:  https://openfoam.org
    \\  /    A nd           | Version:  8
     \\/     M anipulation  |
\*---------------------------------------------------------------------------*/
FoamFile
{
    version     2.0;
    format      ascii;
    class       surfaceScalarField;
    location    "5.6";
    object      phi;
}
// * * * * * * * * * * * * * * * * * * * * * * * * * * * * * * * * * * * * * //

dimensions      [0 3 -1 0 0 0 0];

internalField   nonuniform List<scalar> 
5897
(
4.52466e-10
-1.65969e-10
8.34508e-10
-1.121e-09
-1.12496e-08
1.25261e-08
-1.22812e-08
1.10047e-08
9.53662e-09
-9.43493e-09
1.07584e-10
-2.09265e-10
1.64533e-10
-1.28746e-09
1.17435e-09
-5.14199e-11
1.23799e-08
-1.05977e-08
-6.8495e-11
-1.71368e-09
-7.67478e-09
-2.62896e-09
6.37846e-09
3.92528e-09
-4.82689e-09
4.14315e-10
-6.43568e-10
5.05614e-09
1.31925e-08
6.90833e-09
2.33164e-10
-2.0334e-08
-8.75377e-09
1.90005e-09
-6.97145e-10
7.55087e-09
2.79989e-09
9.34508e-09
-9.8704e-09
-2.27457e-09
-1.39348e-11
6.66096e-10
-7.44949e-10
9.27879e-11
-1.42979e-09
8.99214e-09
1.79434e-09
1.76478e-08
8.60745e-10
-1.51263e-08
-3.3822e-09
1.36413e-08
7.63799e-10
-2.02521e-09
1.60357e-09
1.81571e-10
-3.56337e-10
-1.4288e-09
-1.93452e-08
1.51062e-08
1.1711e-08
-7.47192e-09
4.30572e-09
5.09909e-09
-5.75183e-09
-3.65299e-09
-1.16452e-10
5.45085e-10
1.28042e-10
-5.56675e-10
6.79507e-11
-3.89235e-10
-1.00186e-10
4.21471e-10
9.95658e-09
-2.66832e-09
-1.00482e-08
2.7599e-09
-1.64992e-08
1.97535e-08
-5.71935e-09
2.46501e-09
4.98497e-09
-9.32996e-09
-3.3298e-09
1.10102e-08
-4.51922e-09
-8.04509e-09
1.55411e-09
1.69065e-10
1.96106e-10
-1.78854e-08
1.75203e-08
6.92186e-09
-2.83026e-09
-9.91358e-09
5.82199e-09
-9.44439e-09
-7.08257e-09
5.64508e-09
1.08819e-08
-6.04072e-10
2.46612e-09
1.1608e-09
-3.02285e-09
-1.45661e-08
1.96797e-08
-9.79982e-09
4.6862e-09
2.74218e-10
-1.20602e-10
-2.15858e-10
6.22421e-11
-1.56636e-08
3.2132e-09
-6.89482e-09
-9.06542e-09
1.74589e-08
2.85616e-09
-1.12497e-08
-9.03859e-09
1.16754e-08
-1.42953e-08
1.16585e-08
-1.16091e-08
6.25675e-10
1.21841e-09
9.76503e-09
1.26726e-08
8.86996e-09
-4.11577e-10
-2.11309e-08
-9.1577e-09
-1.36083e-08
6.13769e-09
1.66283e-08
-8.71632e-09
3.61377e-10
8.35494e-09
4.09171e-09
-5.50126e-09
-3.24233e-09
4.65188e-09
1.72911e-08
-1.58963e-08
-7.30375e-09
5.90896e-09
5.81783e-09
-6.06805e-09
8.37018e-10
-5.86797e-10
9.3196e-09
-1.23628e-08
-8.89648e-09
1.19396e-08
-1.14566e-09
9.65824e-10
2.07064e-09
-1.89079e-09
3.92231e-10
-5.62711e-09
-1.97318e-10
5.43219e-09
2.72235e-09
-3.75182e-09
1.03862e-08
-2.29521e-09
3.60817e-09
-3.86025e-09
2.5473e-09
-1.49456e-08
1.63936e-08
-2.87526e-09
1.42722e-09
1.65995e-10
-1.8556e-09
-3.28801e-10
2.01841e-09
8.29742e-09
1.15155e-09
-1.7273e-09
-7.72168e-09
4.87226e-11
4.75108e-11
-9.62334e-11
-1.5425e-10
7.51636e-11
3.79448e-10
-3.00361e-10
-1.26048e-09
3.28756e-09
-1.87857e-08
1.67586e-08
-6.30561e-09
4.48918e-09
-4.78785e-10
-6.76963e-09
-2.18853e-08
5.40535e-09
2.32496e-08
1.7868e-09
-3.95806e-09
9.61924e-09
-7.44799e-09
6.74618e-09
-7.48531e-09
-1.88983e-09
-2.54249e-09
1.23817e-09
1.46099e-10
8.21562e-09
-8.36171e-09
6.00451e-10
7.4059e-09
-8.00635e-09
-1.00044e-08
2.31942e-11
9.98121e-09
3.50296e-10
-1.43109e-08
2.7765e-11
1.39328e-08
8.32985e-09
-5.94898e-09
4.19017e-10
-1.06198e-08
9.11841e-12
1.06107e-08
-1.03536e-08
9.44021e-12
1.03442e-08
-1.00155e-08
5.48458e-12
1.001e-08
1.12483e-08
-7.00028e-09
-4.24805e-09
-3.9368e-11
-1.70577e-08
1.71073e-08
-1.0212e-11
-3.87279e-11
-1.6552e-08
1.66001e-08
-9.37493e-12
-1.47936e-10
3.03048e-10
-1.28793e-09
1.13282e-09
6.10877e-10
6.04801e-09
-1.21555e-10
-6.53733e-09
-3.95486e-11
1.63258e-08
1.30918e-11
-1.62994e-08
-9.99264e-09
-9.90704e-13
9.99363e-09
4.89318e-10
-1.68842e-09
1.46399e-09
-2.64891e-10
-4.70386e-11
1.63386e-08
1.73098e-12
-1.62933e-08
1.59961e-08
-1.52056e-08
-1.36417e-09
5.73676e-10
-9.96013e-09
-2.53197e-12
9.96266e-09
1.5759e-09
-2.9682e-09
3.50554e-09
-2.11324e-09
2.40167e-10
1.64713e-08
-7.15358e-10
-1.53286e-09
4.5451e-10
2.65425e-09
-2.95759e-11
1.63207e-08
-1.44467e-11
-1.62767e-08
2.09297e-09
5.14705e-09
-4.25231e-09
-2.98771e-09
2.56472e-09
-2.33703e-09
1.92313e-09
-2.15082e-09
1.67591e-08
3.00893e-09
-3.37435e-09
6.16576e-10
-1.62455e-09
1.49729e-09
-9.92697e-09
-3.59977e-12
9.93056e-09
1.82913e-10
-1.63262e-08
1.61768e-08
-3.35033e-11
-3.48131e-09
-8.67634e-09
3.22586e-09
8.93179e-09
-2.06756e-11
1.62929e-08
-2.37647e-11
-1.62484e-08
-7.77083e-09
5.41217e-09
-4.24025e-09
6.59891e-09
-1.75435e-11
1.69768e-08
-2.84389e-11
-1.69309e-08
-1.70778e-11
1.64735e-08
-2.75076e-11
-1.64289e-08
-2.66706e-09
-9.98547e-09
4.8817e-09
-1.74736e-11
1.62661e-08
-2.37009e-11
-1.62249e-08
-9.89049e-09
-4.51268e-12
9.89501e-09
-1.63687e-08
-8.44919e-10
5.37779e-10
1.66758e-08
-1.04911e-08
-3.40463e-12
1.04945e-08
-1.02295e-08
-3.17607e-12
1.02327e-08
1.38329e-09
-1.74034e-11
1.62275e-08
-2.71296e-11
-1.6183e-08
-2.03717e-11
1.69347e-08
-2.18782e-11
-1.68924e-08
-1.98171e-11
1.64327e-08
-2.12853e-11
-1.63916e-08
2.95038e-09
3.67618e-09
-4.5336e-09
5.13286e-09
4.10633e-09
-6.28881e-09
-1.08133e-11
1.71841e-08
-6.53958e-11
-1.71079e-08
-1.26897e-11
1.66741e-08
-6.06976e-11
-1.66007e-08
-3.62154e-09
1.69786e-09
-1.45755e-08
1.93655e-09
7.84228e-09
-2.65284e-09
-7.12599e-09
-1.28648e-08
3.71283e-09
-6.51159e-09
1.21123e-10
3.61478e-10
-4.22702e-10
-5.98992e-11
-1.03082e-11
-1.61421e-08
1.6186e-08
-3.36103e-11
-1.04524e-08
-9.28151e-13
1.04534e-08
-1.0192e-08
-8.54369e-13
1.01928e-08
-1.69846e-11
-1.68593e-08
1.69075e-08
-3.11462e-11
-1.66809e-11
-1.63588e-08
1.64059e-08
-3.04034e-11
9.55465e-11
-5.57314e-09
-3.11191e-10
5.78878e-09
-2.8183e-11
1.70898e-08
-1.70382e-08
-2.34639e-11
-2.74457e-11
1.65831e-08
-1.6533e-08
-2.26758e-11
7.62078e-09
1.1943e-08
-1.96158e-08
5.20596e-11
-8.65999e-09
-5.91468e-09
1.10934e-08
3.04198e-10
1.78941e-08
-1.73444e-08
-8.53875e-10
2.86004e-10
1.73599e-08
-1.68294e-08
-8.16434e-10
-1.04217e-08
4.20658e-13
1.04213e-08
-1.01623e-08
4.63662e-13
1.01618e-08
9.20161e-09
7.55507e-10
-6.12043e-10
6.12493e-09
-7.72698e-09
7.35406e-09
-5.75201e-09
-2.16486e-11
1.70635e-08
-1.70136e-08
-2.82265e-11
-2.09997e-11
1.65579e-08
-1.65095e-08
-2.74198e-11
3.68679e-09
-3.45641e-09
-5.05786e-10
2.75406e-10
4.9453e-10
2.20894e-09
-2.15711e-09
-5.46352e-10
-9.06218e-12
1.68469e-08
-2.25085e-11
-1.68153e-08
-9.65064e-12
1.63437e-08
-2.30579e-11
-1.6311e-08
-1.4211e-08
-4.49894e-09
1.58347e-08
-2.54159e-11
1.70391e-08
-1.69915e-08
-2.21732e-11
-2.46044e-11
1.65344e-08
-1.64881e-08
-2.17023e-11
4.42996e-09
3.86364e-09
-3.16074e-09
-2.01356e-11
1.70167e-08
-1.69859e-08
-1.06717e-11
-1.95915e-11
1.65124e-08
-1.64824e-08
-1.04227e-11
-6.33181e-10
-4.81336e-10
3.26618e-10
7.87899e-10
-5.25427e-09
4.1161e-09
5.11412e-09
-3.97595e-09
1.00452e-09
-3.99475e-10
-5.86632e-10
-1.84101e-11
-1.43629e-11
1.68297e-08
1.80513e-12
-1.68171e-08
-1.68319e-11
1.63148e-08
-6.16293e-12
-1.62918e-08
-8.87099e-12
1.60674e-08
-2.12828e-11
-1.60372e-08
-9.74433e-09
-6.86258e-12
9.75119e-09
3.47387e-09
2.40318e-09
-3.27078e-09
-2.60627e-09
-2.1816e-11
1.70118e-08
-1.44083e-11
-1.69756e-08
-2.11367e-11
1.65075e-08
-1.40559e-11
-1.64723e-08
-1.02282e-08
-1.29217e-08
1.19003e-08
2.67601e-10
-3.03646e-09
-1.22748e-11
2.78113e-09
-1.0338e-08
-1.11533e-11
1.03492e-08
-1.00823e-08
-1.03021e-11
1.00926e-08
-1.06592e-08
-1.03923e-08
8.58616e-10
1.9292e-09
-2.29329e-09
9.11866e-09
-8.56409e-09
-1.24623e-09
6.91663e-10
-4.49713e-09
-4.12819e-09
4.91748e-09
3.70785e-09
2.57003e-09
4.81296e-10
-2.78373e-09
-3.63279e-11
-1.69061e-08
1.68946e-08
4.78559e-11
-1.80428e-11
-1.62785e-08
1.63061e-08
-9.50566e-12
7.34938e-10
-1.44474e-09
-1.44958e-08
-1.00514e-08
-2.0225e-09
1.95533e-09
-7.8614e-12
1.60479e-08
-1.37842e-11
-1.60262e-08
-1.03598e-08
1.03564e-08
3.43287e-12
-1.00614e-08
1.00473e-08
1.41878e-11
-1.32256e-08
-3.52788e-09
-9.98083e-09
9.94128e-09
-9.70508e-09
-1.23434e-11
9.71742e-09
-9.87273e-10
8.10611e-10
4.66853e-10
-2.90191e-10
-4.07008e-09
-6.2523e-09
3.47453e-09
6.84784e-09
-1.00451e-08
-1.03057e-08
-1.86938e-12
1.03076e-08
-1.00573e-08
1.01771e-12
1.00563e-08
8.57072e-09
1.54236e-09
-1.81565e-09
1.60737e-08
-1.58872e-08
1.12154e-10
-2.98576e-10
-1.11573e-11
1.6043e-08
7.84076e-12
-1.60397e-08
-2.04472e-08
1.16398e-08
-1.00133e-08
-9.97198e-09
1.00351e-08
-6.30914e-11
-9.82064e-09
1.0247e-08
-4.26378e-10
7.29132e-10
1.73413e-09
-1.60465e-09
-1.76915e-08
4.79765e-09
-1.31042e-08
-1.71363e-08
4.52176e-09
-1.25979e-08
-1.64934e-08
4.36154e-09
-1.24367e-08
-6.36202e-12
1.61534e-08
-1.6114e-08
-3.30289e-11
-9.68101e-09
-2.35825e-12
9.68337e-09
1.05394e-08
-1.02992e-08
1.04427e-08
1.10487e-09
-2.4289e-09
-2.53433e-11
1.6123e-08
5.10511e-11
-1.61488e-08
-9.9776e-09
-1.03026e-08
1.14319e-11
1.02911e-08
-1.00526e-08
6.51913e-12
1.00461e-08
-2.71246e-11
1.81856e-09
-1.17486e-09
-1.04927e-11
1.61305e-08
-1.60989e-08
-2.10492e-11
-3.72057e-09
6.17618e-09
3.04043e-09
-5.49603e-09
1.60028e-08
-1.65308e-08
5.65738e-10
-3.76838e-11
3.72356e-10
-1.71041e-10
-4.20095e-10
2.1878e-10
-9.86719e-12
1.68848e-08
-3.0427e-11
-1.68445e-08
-9.6622e-12
1.63831e-08
-3.01158e-11
-1.63433e-08
3.92293e-09
-5.61526e-10
3.25387e-10
-9.93307e-12
-1.03499e-08
1.70831e-11
-1.00785e-08
-1.06552e-08
1.06444e-08
-1.03859e-08
1.03732e-08
-9.94437e-09
-8.95638e-09
9.4801e-09
-5.23714e-10
-3.62571e-12
1.6111e-08
-1.60825e-08
-2.48601e-11
-1.95366e-11
-1.69332e-08
1.69428e-08
-2.47079e-11
-1.62877e-08
1.63295e-08
-9.69636e-09
8.10992e-12
9.68826e-09
-3.46383e-12
1.61743e-08
-9.72089e-11
-2.80307e-11
6.81786e-11
1.08163e-10
-1.48311e-10
-1.05087e-08
-1.02466e-08
-2.33113e-09
3.99082e-09
8.29689e-09
6.24706e-10
1.47644e-09
-1.37201e-09
1.21521e-08
-1.30607e-08
2.77242e-09
-2.42979e-09
-7.61328e-09
7.27066e-09
-5.83879e-12
1.6094e-08
-2.3415e-11
-1.60647e-08
-1.44946e-10
-9.82703e-09
-9.53812e-09
-2.82517e-10
-9.9008e-09
1.06062e-08
-1.06344e-08
1.03412e-08
-1.03687e-08
-2.94586e-10
-1.59694e-08
1.61191e-08
-1.04728e-08
-1.02118e-08
-4.26438e-09
-8.71042e-09
8.0219e-09
4.9529e-09
-1.92765e-09
4.99439e-09
7.94347e-09
2.46636e-09
5.77398e-09
-5.80128e-09
-2.43906e-09
-1.06038e-08
1.05822e-08
-1.0339e-08
1.0318e-08
1.66478e-08
-1.66662e-08
-2.27181e-10
2.45628e-10
-3.65599e-09
7.61777e-09
-6.52611e-09
2.56432e-09
-6.92904e-10
-8.26348e-09
-9.75505e-09
2.55261e-11
9.72952e-09
4.15805e-09
-4.72364e-09
-8.0944e-09
-5.25e-10
1.58349e-08
-1.64965e-08
1.63647e-08
-1.93986e-10
3.25791e-10
1.05526e-08
-1.0578e-08
1.02891e-08
-1.03137e-08
-1.68307e-10
1.49724e-10
1.219e-09
-1.20042e-09
-1.04387e-08
-1.0179e-08
2.32386e-10
-7.51228e-09
6.68368e-09
5.96207e-10
-4.53104e-11
1.72083e-08
5.25584e-11
-1.72156e-08
1.49515e-08
-1.17008e-08
-2.03619e-08
1.71113e-08
1.60502e-08
-1.1617e-08
-2.27839e-08
1.83508e-08
1.54811e-08
-1.12261e-08
-2.2092e-08
1.7837e-08
-1.62579e-08
-9.2947e-11
1.98494e-10
1.61524e-08
5.36767e-09
-7.30094e-09
-1.5552e-09
3.48847e-09
1.05348e-08
-1.0555e-08
1.02717e-08
-1.02913e-08
-1.51729e-08
1.55932e-08
-2.37333e-10
1.67158e-08
1.03256e-10
-1.1588e-10
-1.67031e-08
1.10684e-08
-1.07642e-08
1.07704e-08
-1.04844e-08
-9.42213e-09
1.15254e-08
-1.29027e-08
1.07994e-08
1.67338e-08
3.84737e-11
-5.64823e-11
-1.05381e-08
1.05163e-08
-1.0275e-08
1.02538e-08
3.83955e-10
-2.32726e-10
1.66368e-10
-9.9781e-11
-3.25109e-10
2.58522e-10
-3.36232e-11
1.69601e-08
2.67154e-11
-1.69531e-08
-1.4897e-11
1.63028e-08
-5.24292e-13
-1.62874e-08
-1.60811e-08
1.61223e-08
1.14276e-13
-4.13561e-11
-1.67446e-08
1.67496e-08
-1.84563e-11
1.33844e-11
-8.77304e-12
2.47725e-11
-1.60971e-08
-2.03204e-11
9.51313e-12
2.55034e-10
3.10705e-10
-1.93383e-10
-1.61215e-08
1.61336e-08
-6.70465e-12
-5.39939e-12
-1.6705e-08
1.66798e-08
-1.73712e-11
4.24943e-11
-6.8656e-09
7.12799e-09
2.51002e-09
-1.03471e-08
-1.0092e-08
-9.7532e-09
8.24219e-11
-1.72188e-08
-7.17618e-11
1.72082e-08
-2.32509e-09
8.06608e-09
-1.00054e-08
-1.6115e-08
1.61244e-08
-1.59014e-11
6.55815e-12
-1.66318e-08
1.66275e-08
-1.84203e-11
2.26745e-11
1.42302e-09
-1.22671e-09
-3.6461e-10
-1.61058e-08
1.61161e-08
-1.22456e-11
1.97304e-12
-1.66004e-08
1.66042e-08
-1.57362e-11
1.19479e-11
2.65098e-10
-1.58286e-10
1.61019e-08
-1.61017e-08
-1.715e-11
1.69293e-11
1.6588e-08
-1.65879e-08
-1.88395e-11
1.87638e-11
2.03846e-08
-7.92913e-09
2.17065e-10
-2.17761e-11
2.25982e-11
4.78864e-11
-3.20514e-12
1.56729e-08
3.98022e-11
-1.56303e-08
-9.86189e-09
9.85552e-09
-1.60595e-08
1.6071e-08
-3.0306e-11
1.88087e-11
-1.65444e-08
1.65565e-08
-3.11681e-11
1.9096e-11
1.57438e-08
3.77186e-11
-1.08634e-10
-1.03201e-08
-1.00742e-08
-9.71294e-09
-1.60436e-08
1.60537e-08
-2.29548e-11
1.2887e-11
-1.65285e-08
1.65392e-08
-2.35613e-11
1.29039e-11
2.31255e-08
-2.81174e-10
-1.98482e-09
-2.08595e-08
-1.12229e-08
2.14382e-08
-1.69362e-08
6.72091e-09
-1.32418e-08
2.20977e-08
-1.59951e-08
7.13921e-09
-1.28855e-08
2.13715e-08
-1.55466e-08
7.06067e-09
1.57757e-08
2.92757e-11
-6.1113e-11
-1.57805e-08
1.57886e-08
-7.64202e-12
-3.95494e-13
-1.60186e-08
1.60322e-08
-2.4266e-11
1.06918e-11
-1.65036e-08
1.65177e-08
-2.46931e-11
1.06227e-11
9.82503e-09
-9.83553e-09
-1.59998e-08
1.60144e-08
-2.45481e-11
9.95616e-12
-1.64844e-08
1.64992e-08
-2.4975e-11
1.01407e-11
7.28925e-12
1.13037e-11
4.06546e-11
7.38599e-12
1.57707e-08
-1.57661e-08
7.60832e-12
-1.21736e-11
-2.09997e-09
-7.64964e-09
7.31981e-09
-1.59842e-08
1.5995e-08
-3.33771e-11
2.26252e-11
-1.64682e-08
1.64788e-08
-3.3994e-11
2.33905e-11
3.02746e-10
-1.60209e-08
1.5744e-08
-1.57417e-08
1.40234e-11
-1.62411e-11
-4.42676e-09
3.81854e-09
2.03617e-08
1.76688e-11
-2.25369e-11
-1.59259e-08
1.59682e-08
-4.15873e-11
-7.48977e-13
-1.64074e-08
1.64511e-08
-4.26941e-11
-1.08009e-12
1.57809e-08
-1.89423e-13
7.8949e-12
-1.03389e-08
-1.00706e-08
-3.3721e-09
-2.33158e-10
1.48842e-10
-9.69217e-09
9.80126e-09
-9.80488e-09
-1.57079e-08
1.57199e-08
1.45673e-11
-2.65582e-11
-1.5912e-08
1.59537e-08
-2.68952e-11
-1.47747e-11
-1.6394e-08
1.64371e-08
-2.7658e-11
-1.53891e-11
1.60895e-08
-8.96579e-12
2.13718e-11
1.65749e-08
-9.85939e-12
2.29405e-11
1.09734e-11
7.59289e-12
1.43806e-11
1.27574e-11
-1.59076e-08
1.59292e-08
-2.45183e-11
2.91098e-12
-1.63904e-08
1.64122e-08
-2.48736e-11
3.01381e-12
-1.5672e-08
1.56918e-08
-1.73915e-12
-1.80805e-11
-1.58826e-08
1.59079e-08
-3.57711e-11
1.05203e-11
-1.6364e-08
1.63891e-08
-3.67085e-11
1.16454e-11
-1.56626e-08
1.56746e-08
1.57707e-11
-2.78267e-11
-9.77735e-09
9.77151e-09
1.57612e-08
-6.81125e-12
1.62824e-11
1.03853e-08
-1.03952e-08
1.01273e-08
-1.0137e-08
-1.58397e-08
1.58864e-08
-3.12633e-11
-1.53902e-11
-1.63185e-08
1.63668e-08
-3.26073e-11
-1.57256e-11
-1.64316e-09
1.53195e-09
8.30264e-09
-8.19142e-09
-1.56148e-08
1.5636e-08
9.91521e-12
-3.1132e-11
-9.72171e-09
-1.58374e-08
1.58664e-08
-2.38097e-11
-5.13841e-12
-1.63172e-08
1.63466e-08
-2.40688e-11
-5.33977e-12
-2.41706e-09
1.18731e-09
-1.30811e-08
9.55971e-12
4.81702e-12
1.38562e-11
2.39715e-12
-4.69378e-12
1.94206e-11
-5.7788e-10
5.95124e-10
-1.55747e-08
1.55999e-08
7.66824e-13
-2.59867e-11
-3.63399e-09
-2.20956e-09
2.87534e-09
-1.62018e-08
1.60216e-08
1.41537e-10
3.86648e-11
-1.57267e-08
1.55531e-08
1.40915e-10
3.27602e-11
-1.47561e-08
-7.12025e-09
7.40256e-09
1.44738e-08
1.68087e-09
-7.91421e-09
-6.22453e-10
6.85579e-09
1.57347e-08
-1.16701e-11
2.09032e-11
-1.55402e-08
1.55785e-08
-1.22582e-11
-2.60055e-11
-1.55168e-08
1.5552e-08
-5.01865e-12
-3.01504e-11
-9.75851e-09
-1.54864e-08
1.55339e-08
-2.09081e-11
-2.66021e-11
-1.50828e-09
-5.83222e-09
1.361e-09
5.9795e-09
-1.54727e-08
1.55309e-08
-5.08759e-11
-7.29077e-12
3.54308e-11
-5.46775e-12
3.71844e-11
-6.67373e-12
-7.59141e-09
7.17231e-09
-5.89306e-12
2.54013e-11
8.71427e-09
-1.06609e-08
1.44727e-08
-1.78682e-08
-6.31613e-09
1.51457e-08
-1.56917e-08
2.99405e-11
-1.02853e-11
5.72056e-09
2.70558e-09
-5.93419e-09
-2.49195e-09
1.21923e-08
7.22616e-09
-5.10831e-09
-1.43102e-08
2.94994e-11
-2.04504e-12
3.04299e-11
-2.44159e-12
-1.04014e-09
-8.08933e-09
5.65381e-10
5.12266e-09
-1.39579e-08
1.63756e-08
-7.54033e-09
1.49418e-10
-1.74323e-10
-1.83282e-10
2.08187e-10
1.91528e-10
-9.07704e-10
8.29954e-11
-1.5953e-08
3.92854e-11
-1.22182e-11
-1.64353e-08
4.05898e-11
-1.26152e-11
-7.51011e-12
3.43285e-11
-1.3918e-10
9.63272e-11
-1.56361e-08
3.56313e-11
-1.43068e-11
2.84819e-11
6.58961e-12
2.9265e-11
6.29487e-12
4.44981e-10
-3.18745e-10
-2.80487e-10
-1.0367e-08
1.03334e-08
-1.0056e-08
1.00411e-08
8.51059e-10
-1.71861e-08
-1.95822e-10
-1.59248e-08
1.41219e-11
-1.35115e-12
-1.64068e-08
1.42791e-11
-1.48114e-12
4.1434e-10
-4.40121e-09
-8.40019e-10
-3.94552e-12
3.21608e-11
-1.74678e-08
5.23282e-11
1.74576e-08
-4.21583e-11
7.48521e-10
4.87877e-09
-1.49809e-08
9.35357e-09
1.2017e-09
-1.594e-09
-5.05727e-09
5.44957e-09
-1.55972e-08
3.4963e-11
-1.24427e-11
-1.72156e-08
-5.56661e-11
5.23941e-11
3.77098e-10
-4.27016e-10
2.56729e-11
6.70103e-12
2.63343e-11
6.94911e-12
-1.47877e-08
-6.55483e-10
1.86564e-08
-1.55631e-08
3.31188e-11
-1.02693e-11
3.53159e-12
2.57442e-11
2.96562e-11
5.2027e-13
3.06897e-11
3.17471e-13
7.77769e-09
-1.87403e-09
5.07191e-10
2.40279e-09
1.74746e-08
-1.58535e-08
2.29505e-11
-9.23664e-12
-1.63327e-08
2.36714e-11
-9.52097e-12
1.31567e-08
-1.39485e-08
-3.7554e-09
4.54729e-09
-1.55392e-08
3.53579e-11
-1.30091e-11
9.90843e-13
3.75333e-11
4.90752e-11
-7.09248e-12
5.08061e-11
-7.31713e-12
3.29665e-10
3.42973e-10
-4.17603e-10
7.42945e-09
-1.10491e-09
-1.108e-09
-5.21654e-09
-1.55101e-08
2.91766e-11
-5.42537e-12
-5.59653e-09
3.95523e-09
-5.43681e-09
3.78153e-09
-5.18641e-09
3.64444e-09
3.19345e-10
-2.01688e-10
1.05619e-09
-1.17384e-09
-1.43579e-09
5.15815e-10
1.82798e-08
-1.49961e-09
5.48011e-10
1.88457e-08
-4.43773e-10
-1.07094e-09
2.7792e-10
1.2368e-09
3.10726e-12
3.56687e-11
2.68092e-11
1.66322e-11
2.75835e-11
1.67383e-11
-1.57908e-08
2.87056e-11
3.53279e-11
-1.62683e-08
3.09234e-11
3.5522e-11
1.78859e-09
-1.76578e-09
-7.42894e-10
7.20083e-10
-1.19324e-08
8.25654e-09
1.04076e-08
-9.45438e-09
-9.53192e-10
-8.17617e-09
7.67366e-09
-1.42523e-09
6.97166e-10
1.1336e-08
-1.06079e-08
-2.66576e-10
1.11232e-10
-2.80108e-10
1.19843e-10
-3.72118e-11
-8.36384e-09
4.13767e-10
7.98729e-09
-1.54978e-08
2.11455e-11
3.93883e-12
-2.08635e-11
5.29804e-11
-1.99005e-11
5.10908e-11
1.35724e-08
-2.18236e-08
3.86981e-09
4.38142e-09
1.31762e-08
-2.11744e-08
3.77856e-09
4.21966e-09
1.15807e-08
-1.60462e-08
1.45341e-10
4.3201e-09
-8.86919e-10
2.6273e-10
1.13075e-09
-5.06563e-10
-2.68978e-11
5.22178e-11
-2.57874e-11
5.06694e-11
-2.56781e-11
5.12043e-11
-2.49526e-11
4.98892e-11
-1.80932e-11
4.32105e-11
-1.76769e-11
4.20039e-11
-1.2725e-11
3.86569e-11
-1.2442e-11
3.74869e-11
7.65099e-12
2.92111e-11
2.69824e-11
1.91379e-11
2.73613e-11
1.93156e-11
1.63927e-08
-1.11604e-08
7.09578e-09
-1.23281e-08
1.58952e-08
-1.08352e-08
6.91098e-09
-1.19709e-08
-1.13431e-08
-1.12864e-08
-1.09355e-08
-3.29101e-09
-2.2679e-08
2.73875e-08
-1.41755e-09
5.33943e-11
-2.79463e-11
5.16757e-11
-2.73317e-11
-1.81098e-08
6.60076e-09
1.49696e-08
-3.46054e-09
2.7057e-09
8.60782e-09
-6.79962e-09
-4.5139e-09
1.43758e-09
-1.19425e-09
3.81379e-10
3.8628e-11
7.91105e-12
3.99226e-11
8.28781e-12
3.84846e-10
5.47182e-10
-6.02364e-10
1.60045e-08
-1.7265e-08
1.51727e-08
8.318e-10
1.53581e-10
1.74588e-09
-2.95895e-10
5.50702e-12
4.8414e-11
2.95746e-11
-5.29804e-12
1.12992e-11
2.80087e-11
-3.82612e-09
3.79419e-09
-7.19268e-09
7.22461e-09
-8.06058e-09
-1.4336e-10
-1.53675e-09
9.7407e-09
-5.90785e-09
2.58686e-09
6.02669e-09
-1.8521e-08
-4.80224e-09
-1.79677e-08
-4.64246e-09
-3.40201e-11
4.52794e-11
-2.03368e-11
3.68523e-11
-4.94194e-09
7.4356e-09
-7.01288e-09
4.11788e-11
1.32673e-11
4.2865e-11
1.35692e-11
-2.22222e-11
3.42684e-11
-1.80425e-08
1.79342e-08
9.59391e-10
3.33756e-11
-2.19138e-11
-1.60873e-09
2.53905e-09
1.39217e-09
-2.32249e-09
6.86935e-11
2.40619e-09
8.00253e-10
7.40154e-10
-1.16599e-09
-3.74414e-10
5.37263e-10
-5.26842e-10
-4.38512e-10
4.28091e-10
1.19736e-09
-1.4651e-09
-2.47722e-09
2.74496e-09
-1.05914e-08
-2.3958e-09
-4.25906e-09
-7.13127e-09
4.60906e-09
6.78127e-09
-8.21072e-09
1.28755e-11
2.89836e-11
-1.70142e-08
1.23109e-10
1.01566e-09
-4.78075e-09
-6.13692e-10
4.37877e-09
1.03277e-08
-2.60488e-09
-9.51405e-09
1.79125e-09
-4.88842e-09
6.71095e-09
1.74497e-08
-1.92722e-08
-2.94974e-10
3.82009e-10
2.55938e-10
4.08075e-10
1.72923e-08
-1.75043e-08
-7.08244e-10
8.63491e-10
-7.66752e-09
2.65012e-11
2.24755e-11
2.7288e-11
2.23881e-11
-7.86575e-09
-1.62743e-10
-3.20859e-11
-1.63615e-08
1.7603e-08
-3.04016e-09
1.79861e-09
3.21947e-10
-4.84598e-09
3.7935e-09
7.30528e-10
-1.54929e-08
-9.53033e-11
1.5465e-08
1.23211e-10
-7.68816e-09
-5.33796e-09
5.64384e-09
7.38228e-09
-1.77388e-09
1.05316e-09
-1.66202e-10
-1.68834e-09
-2.22694e-10
1.37156e-10
1.9983e-09
-1.78152e-08
-1.36918e-09
2.23919e-09
-7.21867e-09
-3.80115e-10
5.3596e-09
-1.29246e-11
1.71293e-08
-1.19038e-11
1.66214e-08
2.04163e-11
1.56515e-11
-1.11851e-08
-4.69692e-09
3.01715e-09
-4.27602e-09
7.05973e-09
-7.04276e-09
3.17494e-11
4.38382e-11
3.3654e-11
4.46675e-11
5.76452e-11
1.25824e-09
-8.30916e-09
-1.31766e-09
8.38059e-09
-4.24528e-09
7.09035e-09
-7.12109e-09
-8.91214e-12
1.63351e-08
-1.65599e-09
2.71418e-11
1.63346e-08
-3.52053e-09
5.23943e-09
1.16662e-08
-1.33851e-08
9.56922e-09
6.29001e-10
-7.95903e-09
-1.89476e-11
1.63108e-08
-3.00251e-11
1.70035e-08
-2.9124e-11
1.64995e-08
-1.12546e-08
-3.28789e-09
1.1022e-08
2.74446e-09
8.70874e-10
-2.41797e-09
-2.42976e-11
1.64561e-08
-2.49577e-11
1.69587e-08
-2.13166e-11
1.62849e-08
-1.94255e-11
1.64258e-08
-1.98172e-11
1.69277e-08
5.23055e-09
-4.78227e-09
7.53424e-10
-2.87542e-11
1.63622e-08
-2.90105e-11
1.68647e-08
-1.12146e-11
1.6327e-08
-8.27445e-12
1.68361e-08
-3.52811e-12
1.63161e-08
4.03631e-11
1.68657e-08
-2.42967e-11
1.62482e-08
-4.09909e-09
6.65129e-09
-6.79749e-09
-4.33743e-11
-1.51495e-10
-5.22551e-10
-2.93233e-10
4.87174e-10
3.28611e-10
-1.64329e-09
1.07987e-08
-1.05807e-08
-2.67973e-11
1.62083e-08
3.35292e-10
-1.23603e-10
6.2529e-11
3.81891e-09
1.23211e-09
-4.03536e-09
-1.7251e-08
9.76036e-11
-1.51913e-08
-2.56092e-10
1.54021e-08
-1.83282e-08
-1.04665e-09
-1.77772e-08
-1.00692e-09
1.16512e-10
-8.85693e-09
9.16935e-09
-4.28927e-10
1.49623e-09
8.03578e-09
-1.00903e-08
1.2102e-08
9.47468e-09
-1.14864e-08
2.00469e-10
-3.08006e-10
-1.25953e-10
2.3349e-10
-1.67373e-11
1.60772e-08
-2.12707e-11
1.60568e-08
-7.83002e-12
1.60485e-08
7.13598e-11
-1.66391e-09
2.92311e-10
1.30023e-09
1.50378e-11
1.61848e-08
5.28015e-11
1.60784e-08
1.29223e-08
-1.27972e-08
-7.81427e-09
7.68921e-09
8.63147e-09
9.25407e-09
-6.21018e-09
1.04339e-08
-1.06337e-08
8.96882e-10
-3.28044e-10
1.90339e-10
-7.95154e-09
-2.32834e-09
2.10492e-09
8.17497e-09
8.00516e-09
-1.01857e-08
9.97609e-09
-7.79559e-09
-7.76742e-09
4.40316e-12
9.65213e-10
5.16938e-11
-1.02131e-09
-2.55878e-09
1.68313e-09
2.74633e-09
-1.87068e-09
-6.94215e-09
1.77299e-09
1.92317e-11
5.14992e-09
3.27982e-09
-3.04717e-09
-3.29099e-09
3.05835e-09
-2.16986e-08
1.87716e-08
2.927e-09
6.29375e-09
3.8072e-09
-3.0786e-09
-7.02235e-09
-1.7673e-09
-1.73467e-08
1.77498e-08
2.162e-10
3.09614e-09
1.80128e-09
-1.63137e-09
-3.26605e-09
8.44513e-09
6.94741e-09
-1.04945e-08
-9.38382e-09
7.56376e-09
1.23145e-08
2.13775e-09
-1.32126e-08
2.49964e-10
1.23279e-10
-1.57043e-10
8.30823e-09
-8.92891e-09
1.57268e-08
-7.1166e-09
6.65456e-09
5.79853e-09
-5.33649e-09
2.48763e-10
-7.78377e-09
-4.30685e-10
7.9657e-09
-9.4668e-09
1.73348e-09
-2.2191e-09
9.95241e-09
-4.63981e-10
7.67081e-09
-7.83647e-09
6.29639e-10
-1.24291e-10
5.78403e-09
-7.32082e-09
-6.15137e-09
-1.0496e-08
1.02688e-08
5.05229e-09
-4.40275e-09
-4.74863e-09
2.87929e-10
-6.44598e-10
5.46838e-10
-1.90169e-10
-1.83586e-08
1.0936e-09
3.24611e-09
-3.759e-10
-4.16111e-09
1.2909e-09
1.96998e-09
-2.00769e-09
8.45578e-10
-8.07872e-10
-1.23398e-08
1.65507e-08
-9.59877e-09
5.38782e-09
1.76346e-10
4.22826e-10
7.05839e-09
-7.65756e-09
-1.65244e-09
5.4866e-09
2.09301e-09
-5.92717e-09
4.01601e-09
2.79548e-09
-3.16962e-09
-3.64188e-09
8.08131e-10
3.88771e-09
-8.76927e-10
-3.34575e-09
-8.60206e-09
2.48101e-09
5.37695e-11
-1.72916e-08
-1.16696e-10
1.71663e-10
-5.49673e-11
6.04072e-11
-2.23779e-11
-3.32807e-09
-3.58366e-10
4.2167e-10
3.26477e-09
2.5345e-09
-1.3602e-08
1.62315e-09
-1.78115e-08
1.48759e-10
-1.75094e-08
-1.07192e-10
-5.2925e-10
-1.13053e-08
1.13879e-08
4.46666e-10
-7.71866e-10
4.42389e-10
6.17406e-10
7.98612e-09
-4.37176e-10
6.26882e-10
-8.17582e-09
1.30311e-09
-1.14469e-09
1.81157e-09
7.5663e-10
3.82406e-09
-7.05794e-09
2.47726e-09
-2.36809e-10
2.69479e-10
-3.26703e-11
-9.8499e-11
1.49023e-10
3.31485e-10
-2.38105e-09
-1.78645e-09
-2.03536e-09
9.90319e-11
-1.46826e-09
-5.92971e-10
5.15738e-09
-4.23784e-09
8.57802e-09
-1.14568e-08
-4.13617e-10
6.09739e-10
-3.73493e-10
1.77371e-10
-8.32919e-09
8.03082e-09
7.68416e-10
-4.70052e-10
-5.67389e-10
-1.14808e-09
-9.43456e-09
-1.20828e-09
1.23763e-08
9.8421e-09
-1.00361e-08
-3.43619e-10
-7.41275e-10
2.12568e-10
-1.1589e-10
-3.89972e-10
-3.78341e-10
-7.69057e-09
6.4825e-10
9.74736e-11
2.51068e-11
-8.63856e-10
-1.28726e-08
7.19219e-09
4.84988e-09
-4.22147e-09
9.72293e-09
-1.03513e-08
-2.48395e-08
1.80699e-08
-1.06441e-09
2.49395e-09
5.86235e-09
-7.29189e-09
-6.58784e-11
-5.08179e-11
-7.64565e-09
9.87796e-09
-2.23231e-09
-6.23149e-10
7.31989e-10
9.59561e-10
-1.0684e-09
-7.84002e-09
7.88083e-09
-1.53016e-10
1.12203e-10
2.17563e-09
2.75514e-09
-2.2068e-09
-2.72397e-09
-6.58532e-10
1.09638e-08
-7.06733e-10
-9.59851e-09
-1.05455e-09
9.31785e-10
-5.00386e-10
1.23596e-09
-1.9871e-09
5.04343e-09
-4.74352e-09
8.14065e-09
-8.44056e-09
-2.97911e-09
1.06231e-08
-7.64396e-09
-4.24509e-10
1.52122e-09
3.76197e-10
-1.4729e-09
-7.85215e-09
-1.30735e-09
1.20795e-09
1.79686e-09
-1.95849e-09
-6.10639e-11
-1.77831e-08
-2.60713e-10
-1.83347e-08
-2.73647e-10
3.96715e-09
4.17493e-09
-4.03574e-09
1.35957e-09
-1.23674e-08
1.31456e-08
-7.83068e-09
4.0136e-10
8.74079e-09
-7.066e-09
-8.2084e-09
6.53362e-09
-5.95817e-11
7.80772e-10
-5.05172e-10
-2.16018e-10
3.47108e-09
-1.24183e-09
5.15212e-10
3.83035e-09
-3.95851e-09
6.57774e-09
-6.44957e-09
6.08966e-09
-7.28321e-09
-8.67685e-09
3.40499e-10
-1.76318e-08
1.75564e-08
9.06273e-10
-9.90558e-10
8.16273e-10
-3.2499e-10
-7.9104e-09
8.07265e-09
2.75707e-09
-2.1951e-09
6.00239e-10
2.46573e-09
4.56734e-10
3.42899e-09
-1.7101e-09
-4.51132e-10
-1.63728e-09
2.82954e-09
-2.94575e-09
2.3471e-09
-2.23089e-09
1.57704e-09
5.36183e-11
-3.16255e-09
4.25765e-09
-3.03828e-09
1.94319e-09
4.92197e-10
2.61554e-10
-2.06914e-10
4.32043e-10
7.20668e-09
-8.10902e-09
3.74177e-10
2.88268e-09
1.94169e-09
-1.35329e-09
-3.37768e-10
2.49568e-10
3.16641e-09
-3.07821e-09
-9.80917e-10
7.76433e-10
-1.99061e-09
-7.87085e-09
-5.63164e-10
4.31772e-09
9.49237e-10
-1.03056e-09
-4.2364e-09
4.81599e-10
-3.00416e-09
2.32869e-09
1.93871e-10
4.74608e-10
-3.88734e-10
6.25009e-10
-7.10883e-10
-4.49532e-09
4.65898e-09
4.70087e-10
5.47166e-09
-2.11769e-09
7.78453e-11
6.42036e-09
-1.26765e-09
3.34666e-10
-7.86401e-09
-3.41499e-10
1.89138e-09
2.03418e-09
-3.07998e-09
-8.26256e-09
-1.08674e-09
-2.04428e-09
-1.24823e-08
7.93426e-09
1.35571e-09
4.57817e-10
1.07471e-08
-1.26798e-08
1.40336e-09
-1.23302e-09
3.23969e-09
-2.34443e-09
-6.86763e-09
7.16764e-09
5.48402e-09
-2.6209e-09
2.84151e-10
-6.10908e-09
-4.54317e-09
1.03681e-08
-8.28354e-10
2.69055e-10
-2.19339e-09
2.23274e-09
-1.78545e-08
-9.35588e-10
8.96097e-09
1.33111e-09
-1.44958e-09
1.04987e-08
1.69802e-09
-7.65627e-09
7.36174e-09
8.47615e-10
-3.36756e-09
-8.54465e-09
-5.8821e-11
4.20781e-10
8.18269e-09
7.12544e-10
4.69762e-10
-7.29841e-10
-1.75026e-10
-2.10746e-09
-7.21669e-10
1.82282e-09
-1.76435e-09
2.68785e-09
-8.54799e-10
1.23919e-10
8.55455e-10
-6.99205e-10
-5.55725e-10
-7.59869e-09
-1.50831e-09
1.01766e-09
-3.80424e-10
4.0415e-10
1.7104e-09
-1.01258e-08
7.46653e-10
7.9262e-09
1.45294e-09
9.0296e-09
-4.14499e-09
-9.12245e-09
2.77647e-10
-4.48446e-11
1.97613e-09
-7.03451e-10
-1.41385e-10
4.31218e-10
2.90141e-09
1.69675e-10
-8.81715e-09
-3.72313e-09
1.18817e-08
5.37093e-09
3.7026e-09
1.67764e-10
5.81265e-10
-8.08611e-10
-9.47694e-09
8.39799e-09
9.81973e-09
-6.27747e-09
-2.26894e-09
2.16163e-09
6.38478e-09
9.27122e-09
-8.50214e-10
-7.14098e-10
8.7644e-12
-1.49466e-10
-7.72047e-09
1.29212e-10
3.79071e-09
1.5111e-10
-4.45141e-09
-5.03088e-09
4.64793e-09
4.83436e-09
8.40219e-09
1.50585e-10
-5.47316e-11
-9.58539e-11
-1.09721e-10
2.67159e-10
-6.19929e-10
-1.14851e-09
7.13895e-10
-6.9631e-09
-2.6808e-09
7.60191e-09
2.04198e-09
-2.59568e-09
4.69265e-09
8.33764e-10
-2.93074e-09
2.38035e-10
-2.67534e-10
2.66055e-10
-2.36556e-10
-1.27691e-08
1.05084e-08
1.70862e-10
2.08987e-09
-1.69777e-08
1.69362e-08
8.81631e-10
-4.99495e-10
4.45211e-10
-8.27348e-10
3.08411e-09
-8.79547e-09
-7.05777e-09
1.21926e-09
4.66181e-09
-4.95539e-09
-9.25677e-10
7.6733e-10
-6.76359e-10
-6.25468e-10
5.34497e-10
-6.77023e-09
-4.64428e-09
2.64851e-10
-9.31875e-11
-3.76825e-10
2.55133e-10
5.963e-10
-4.52011e-10
6.5308e-10
9.07015e-09
-9.37928e-10
8.86386e-09
7.70577e-09
1.19409e-09
-8.08421e-09
-8.15646e-10
-1.45917e-09
3.65926e-09
1.97484e-09
-6.06568e-09
5.26445e-09
-5.69626e-11
2.07548e-10
-2.91862e-09
7.12982e-10
3.05325e-09
4.03162e-10
2.42022e-11
-4.27364e-10
7.08801e-09
-6.94674e-09
3.99988e-09
-4.7054e-10
7.91935e-09
-4.29543e-10
-7.92698e-09
1.79421e-10
-1.01498e-10
-2.65616e-10
1.87692e-10
1.82642e-09
1.30505e-09
-1.15411e-09
-1.50944e-10
-5.32453e-09
5.88412e-09
-5.59592e-10
-7.75117e-10
1.09819e-10
3.49419e-09
-2.8289e-09
-8.72243e-11
-1.34654e-09
5.98662e-09
2.1061e-09
2.88562e-10
1.59203e-09
-1.11928e-08
9.79624e-10
1.15727e-08
-1.72939e-08
-3.56422e-11
3.78973e-11
-1.2505e-09
5.26549e-09
-5.66743e-09
-4.08268e-10
-1.7793e-10
-7.13427e-09
-1.25446e-09
-7.38701e-09
7.67116e-09
-1.47727e-09
1.38044e-09
2.52053e-10
-1.55222e-10
-8.29991e-09
-3.04838e-09
4.28229e-09
-8.032e-10
5.78597e-10
9.58129e-09
-4.94392e-09
-3.80614e-10
4.13015e-09
4.49664e-09
-4.79645e-09
-3.17363e-09
2.41011e-10
2.93262e-09
1.07486e-09
-7.58497e-09
1.62044e-09
1.57404e-09
-4.11526e-09
4.5296e-09
-6.64898e-09
-9.96672e-10
1.32806e-08