/*--------------------------------*- C++ -*----------------------------------*\
  =========                 |
  \\      /  F ield         | OpenFOAM: The Open Source CFD Toolbox
   \\    /   O peration     | Website:  https://openfoam.org
    \\  /    A nd           | Version:  8
     \\/     M anipulation  |
\*---------------------------------------------------------------------------*/
FoamFile
{
    version     2.0;
    format      ascii;
    class       volVectorField;
    location    "5.6";
    object      U;
}
// * * * * * * * * * * * * * * * * * * * * * * * * * * * * * * * * * * * * * //

dimensions      [0 1 -1 0 0 0 0];

internalField   nonuniform List<vector> 
1642
(
(4.50843e-06 -5.30916e-06 1.16898e-26)
(0.0020693 0.00503925 1.00722e-20)
(0.00233257 0.00485588 5.81441e-21)
(0.00219207 0.00384646 3.18377e-20)
(0.000880686 1.4328e-05 1.45839e-21)
(0.000710191 0.000133029 3.72733e-20)
(0.00107587 0.000161041 9.09063e-21)
(0.00106454 0.000243102 -4.33434e-24)
(0.000687371 0.000473562 8.8486e-21)
(0.000845649 0.000245723 2.35204e-20)
(0.00271734 0.00314191 -1.74864e-20)
(0.000338686 0.000937432 -1.91015e-20)
(0.000775797 0.000387079 2.31876e-20)
(0.000880913 0.000197328 -1.57795e-20)
(0.000481986 0.000396444 0)
(0.000691588 0.000497963 0)
(2.24563e-05 0.000245285 -1.24388e-20)
(-2.92086e-08 0.000207972 2.06067e-20)
(1.49911e-05 1.94511e-05 5.25084e-25)
(2.73459e-05 1.13926e-05 4.25675e-21)
(0.000898159 0.000132718 -6.03135e-21)
(0.00097762 0.000252301 6.92299e-21)
(0.000861363 0.000194643 0)
(0.0023612 6.52917e-05 -2.05916e-20)
(0.000341679 0.000239236 -3.44118e-20)
(3.23686e-05 0.000508457 -4.41445e-21)
(0.000822467 -0.000101393 1.35274e-20)
(0.000114889 0.000221795 0)
(0.00411722 0.00428345 5.35478e-22)
(0.00418265 0.00434458 2.01568e-22)
(0.00434949 0.00451017 -2.44996e-22)
(0.00102393 8.92127e-05 -1.05427e-20)
(0.000338035 0.00122225 0)
(4.11393e-05 -4.56382e-05 -4.49854e-21)
(0.00036079 0.000219304 1.04633e-20)
(0.000391036 0.000434203 -1.96083e-21)
(0.000900512 0.000388529 -3.42913e-20)
(0.000937796 2.86214e-05 3.26956e-22)
(0.000412148 0.000327007 -8.97113e-25)
(0.000906666 0.000247695 -1.033e-20)
(0.000813909 0.000195241 0)
(1.88356e-05 4.52506e-05 -2.42162e-21)
(3.43985e-05 8.5317e-06 0)
(0.00074821 0.00495647 -2.13601e-20)
(-0.00149965 1.16055e-05 -2.01347e-21)
(0.000748405 3.7455e-05 -2.26962e-21)
(0.000855122 1.65003e-05 6.75214e-22)
(0.000486137 0.000109826 -4.70854e-21)
(0.000357544 0.000122326 -1.32518e-20)
(0.00067357 0.000392276 -2.02908e-20)
(3.35049e-05 8.55566e-05 -4.98165e-21)
(0.000744954 0.000416907 -6.46963e-21)
(1.57305e-05 -6.13571e-06 3.53101e-21)
(0.000237351 0.0046947 0)
(0.00251668 0.00378019 -1.5614e-20)
(0.00056455 0.000485253 1.02061e-21)
(0.00107109 0.000192474 -4.59428e-21)
(0.00019565 1.11699e-05 -6.86326e-21)
(0.00122046 0.000414674 -2.75171e-20)
(0.00035585 -0.000343039 0)
(0.000266546 0.000143548 0)
(0.000929626 5.60263e-05 -1.28954e-21)
(9.06021e-05 -7.31265e-05 3.78321e-21)
(0.00141088 0.000178102 -1.93009e-20)
(7.45774e-05 0.000423509 1.5871e-20)
(5.58186e-05 9.73259e-06 1.17944e-21)
(0.00011006 0.000125435 0)
(4.90271e-05 1.76779e-05 -4.80034e-21)
(0.000436926 0.000531349 5.32649e-21)
(6.12407e-06 6.16339e-05 -4.4803e-21)
(0.000316299 9.76278e-05 -1.27884e-20)
(7.53748e-05 0.000279732 -1.40981e-20)
(0.000248857 7.1513e-05 1.69547e-20)
(0.000873187 3.46037e-05 1.31646e-21)
(0.00047453 0.000623435 8.36568e-21)
(0.00130316 0.00156854 -2.17799e-21)
(0.00421822 0.0043953 8.18639e-25)
(0.00404777 0.00423353 0)
(0.00397164 0.00417172 -2.78357e-22)
(0.000429791 0.000181211 6.01563e-21)
(5.80806e-05 -1.48176e-07 2.41714e-21)
(3.45522e-05 2.0427e-05 1.66769e-20)
(0.00110952 0.000369501 -1.7838e-20)
(0.000958237 0.000459404 1.10734e-20)
(-0.00203063 0.00033351 0)
(0.000430444 0.000627422 -4.02193e-21)
(0.000413467 0.00053569 -1.53822e-20)
(9.07972e-06 -9.51796e-05 0)
(0.000556739 0.000593367 3.92605e-21)
(3.34425e-05 -3.25152e-05 -1.81495e-21)
(0.00104462 0.000124065 -7.22736e-21)
(0.000122876 0.000327613 2.92011e-20)
(0.000745644 0.00056778 -1.84296e-20)
(0.000453398 0.000463342 -7.97105e-21)
(0.000539799 0.000400115 -3.14899e-20)
(7.24554e-05 -0.000184064 -1.05359e-21)
(0.000792836 0.000159393 -2.55269e-20)
(0.000572884 0.000336891 2.70604e-20)
(0.000353165 0.000318224 1.59583e-20)
(0.000455062 0.000531301 -1.06093e-20)
(0.000412009 0.000610956 1.97495e-20)
(0.000510134 0.000776012 0)
(2.37589e-05 -0.000192744 8.83488e-21)
(0.00467593 0.00460821 -1.3173e-22)
(0.00449429 0.00443462 1.85614e-20)
(0.00441893 0.00436253 5.04545e-21)
(0.0042657 0.00402549 1.99859e-20)
(0.00420475 0.00396652 2.12921e-22)
(0.00444007 0.00417702 3.79203e-21)
(0.0042772 0.00400571 -1.21738e-22)
(0.00426266 0.00402278 6.28665e-21)
(0.00421414 0.00394166 -7.69135e-21)
(0.00443794 0.00418802 0)
(0.00445054 0.00416764 6.36681e-21)
(0.00428421 0.00400879 1.80634e-21)
(0.00428384 0.00400826 3.78995e-21)
(0.00445017 0.00416715 -1.20772e-21)
(0.00420786 0.00397415 0)
(0.00426691 0.0033358 0)
(0.00408171 0.00357013 8.79886e-21)
(0.0042157 0.00395043 -1.06614e-21)
(0.00368866 0.00297423 -2.45506e-20)
(0.00431806 0.00333629 0)
(0.000402287 0.000629988 3.90285e-21)
(0.000520346 0.000593708 0)
(0.000315796 -8.64008e-05 2.54017e-21)
(0.000949955 0.000233551 1.46754e-20)
(7.76383e-06 -6.05689e-05 0)
(0.000553656 0.000279923 4.98522e-21)
(0.000603587 0.000325641 -1.46868e-20)
(0.000416281 2.28019e-05 0)
(0.000214046 -0.000107937 -2.47942e-21)
(2.26883e-05 -4.268e-05 -1.06384e-21)
(0.000781717 0.000125913 9.14653e-21)
(5.71982e-05 -1.03461e-05 -8.29025e-26)
(3.29373e-05 -5.72121e-05 1.11457e-21)
(0.000615894 0.000277321 -2.74701e-21)
(0.000317774 -4.60794e-06 2.73208e-21)
(0.000615084 0.000219557 0)
(0.000691637 0.000358351 0)
(2.5987e-05 0.000386766 8.49734e-21)
(5.84144e-05 1.99134e-05 -1.60284e-21)
(9.68271e-05 7.51869e-05 0)
(0.000331741 6.02322e-05 1.15677e-20)
(0.000593505 0.000452431 3.99435e-20)
(6.58325e-05 0.000220252 1.49702e-20)
(0.000806845 0.000108547 0)
(4.83895e-05 0.00013092 2.06327e-20)
(0.000815372 0.000155979 -2.60909e-21)
(0.000702644 0.000182695 4.31542e-20)
(0.000280753 0.000186882 1.7336e-20)
(0.000849002 4.65385e-05 3.92282e-21)
(6.59322e-05 -1.60244e-05 -2.26686e-21)
(0.000318282 0.000236427 0)
(0.00105888 -9.73894e-05 1.24612e-20)
(0.000834861 0.00015015 0)
(0.000877156 0.000123264 -2.14294e-21)
(4.6575e-06 2.23778e-05 -1.42567e-20)
(6.45449e-06 -4.50314e-05 -6.76316e-23)
(-1.37618e-05 0.000295647 0)
(8.82729e-05 7.47455e-05 3.90794e-20)
(6.58079e-05 5.04856e-05 -4.15682e-21)
(0.000138227 -4.4738e-05 1.12756e-21)
(0.000897515 0.000239396 0)
(5.3695e-06 -2.9606e-05 0)
(0.000848595 6.5455e-05 0)
(0.000882311 8.01408e-05 0)
(5.27244e-05 -1.92682e-05 -2.50731e-21)
(0.000870682 7.38114e-06 -5.69097e-21)
(1.94335e-05 -0.000189171 -2.09323e-21)
(-1.49052e-05 0.000301695 -2.1062e-20)
(-2.4126e-06 0.000174312 -1.82046e-20)
(5.24454e-06 4.78723e-05 4.41392e-21)
(2.23134e-06 0.00014648 1.84919e-20)
(0.000673939 -1.44239e-05 -6.68033e-21)
(2.0998e-05 -0.000108312 1.99852e-21)
(0.000792745 0.000232991 1.05985e-20)
(0.000355565 0.000142578 1.55639e-20)
(0.00060441 0.000224781 0)
(0.000545504 0.000464507 -4.02766e-21)
(0.000969823 0.000372786 9.25286e-21)
(3.96378e-05 2.02781e-05 1.49182e-20)
(0.000765875 0.000795217 4.01113e-21)
(4.05099e-06 3.23534e-05 7.1392e-21)
(4.52286e-06 0.000120973 0)
(0.00054675 0.000311259 1.09851e-20)
(0.000622188 8.57497e-05 9.75394e-22)
(4.96678e-05 -9.66424e-06 -9.90745e-21)
(0.000197958 -0.000189581 1.35099e-21)
(0.000920972 0.000339135 1.80187e-24)
(0.000472091 0.000484432 1.16477e-25)
(0.000375483 0.000126392 -1.26571e-20)
(4.88335e-05 3.15615e-05 1.8988e-21)
(0.000303522 0.000277768 -8.34575e-21)
(0.000188901 -8.15245e-05 -2.38144e-21)
(0.000719546 -3.63252e-05 1.49194e-24)
(0.000399926 0.000622385 -9.41832e-22)
(5.0425e-05 -2.33522e-06 7.86823e-21)
(0.000298294 0.000428989 -1.98168e-20)
(0.000599816 0.000212749 3.37368e-20)
(6.34753e-05 1.03908e-05 -4.50448e-21)
(8.05741e-05 9.70393e-07 -2.82316e-22)
(0.000526378 0.000673909 -4.10168e-21)
(0.00062819 0.000436132 1.22703e-20)
(0.00103023 0.000133159 0)
(4.206e-05 8.20107e-06 1.24745e-20)
(0.00039906 0.000219911 -9.39503e-21)
(0.0044483 0.00418771 -1.85875e-20)
(0.0042205 0.00396575 -8.11847e-21)
(0.00428492 0.00402872 -7.51879e-21)
(0.00444511 0.00419083 -1.12969e-20)
(0.00444297 0.00419352 0)
(0.00251587 0.00254038 4.5448e-21)
(0.00251541 0.002539 -2.40024e-23)
(0.00421657 0.0039627 -8.28246e-21)
(0.00444672 0.00418954 6.50026e-21)
(0.00427904 0.00402638 -9.48047e-21)
(0.00444733 0.00419023 -6.36053e-21)
(0.00428277 0.00402627 7.74226e-21)
(0.00250388 0.00253106 0)
(0.00444563 0.00419384 0)
(0.00251291 0.00252422 -3.66147e-21)
(0.00444473 0.004189 -5.7665e-21)
(0.00422583 0.00395708 -5.03713e-21)
(0.00444755 0.00419473 -1.49752e-20)
(0.00422423 0.00396475 0)
(0.00240315 0.00242814 -3.7365e-21)
(0.0047021 0.00417158 -3.14175e-20)
(0.00252003 0.00251766 1.64932e-20)
(0.00242103 0.00244674 -7.13498e-21)
(0.00251572 0.00253838 -1.31696e-20)
(0.00242046 0.00244713 -9.63232e-21)
(0.00251397 0.00253769 1.07343e-20)
(0.00251968 0.00252331 -1.1506e-20)
(0.00251878 0.00254066 -1.11044e-22)
(0.00250321 0.00252932 8.5919e-21)
(0.00241273 0.00244172 1.36937e-20)
(0.00250941 0.00253376 2.25478e-20)
(0.00443927 0.00419286 -7.11946e-21)
(0.00428757 0.00402562 -3.41648e-21)
(0.00494475 0.00422272 2.38354e-20)
(0.00428257 0.00402781 -1.31419e-22)
(0.00444615 0.0041945 6.702e-21)
(0.00550126 0.00452494 -1.64013e-20)
(0.00445482 0.00419324 3.39991e-21)
(0.00428189 0.00401776 1.18806e-21)
(0.00251488 0.00253653 6.89888e-21)
(0.00277081 0.00271463 -1.60763e-20)
(0.00423624 0.00396103 0)
(0.00444917 0.0041747 -1.13705e-21)
(0.00250693 0.00254449 2.38403e-21)
(0.00444455 0.00418737 -1.18258e-20)
(0.00435216 0.00396965 0)
(0.00473073 0.00412182 7.77696e-21)
(0.00445353 0.00417714 1.81035e-21)
(0.00428726 0.00402124 1.90421e-21)
(0.00422521 0.00395974 -2.1979e-21)
(0.00438247 0.00418257 1.74536e-20)
(0.0042129 0.00396873 1.06266e-20)
(0.00428629 0.00401983 -1.87909e-21)
(0.00421183 0.0039736 0)
(0.00429991 0.00411676 0)
(0.00429361 0.00412308 -1.45138e-20)
(0.00242268 0.00245937 2.48917e-21)
(0.00258832 0.00256477 -1.58949e-20)
(0.00430831 0.0041083 7.11643e-21)
(0.00422459 0.00396194 0)
(0.00428053 0.00403435 -1.12464e-20)
(0.00336378 0.00316514 -2.11241e-22)
(0.00428883 0.00404429 6.61229e-21)
(0.00250582 0.00253229 -7.18763e-21)
(0.00445432 0.00417924 -1.83455e-21)
(0.00240612 0.00244209 4.43581e-21)
(0.00421387 0.00397277 7.04543e-21)
(0.00446824 0.00417038 7.57581e-21)
(0.00462091 0.00424682 0)
(0.00244977 0.00245447 -2.70299e-20)
(0.00428181 0.00403551 1.24639e-20)
(0.00444469 0.00418799 6.05685e-21)
(0.0024241 0.00244319 1.38226e-22)
(0.0025251 0.00253631 -6.90189e-21)
(0.00241212 0.00244668 2.1897e-21)
(0.00250613 0.00252744 -6.04932e-21)
(0.0034724 0.00330143 -1.7556e-20)
(0.00444353 0.00417757 -1.89485e-21)
(0.00428875 0.00402387 0)
(0.00242764 0.00245374 4.93762e-21)
(0.00420977 0.00396739 0)
(0.00242863 0.00245968 -2.51856e-21)
(0.00239823 0.00242226 1.67358e-20)
(0.00445617 0.00418168 0)
(0.00422633 0.00396131 6.63699e-21)
(0.00421449 0.00396928 6.43471e-21)
(0.00445955 0.00419115 6.30566e-21)
(0.00249713 0.00253411 2.1132e-21)
(0.00243219 0.00245489 0)
(0.00249383 0.00253261 4.60247e-21)
(0.0028821 0.0027919 1.83987e-20)
(0.00290067 0.00284959 0)
(0.00428047 0.00403498 1.18104e-20)
(0.00422506 0.00395937 3.63743e-21)
(0.00249178 0.00253349 -1.42303e-21)
(0.00428623 0.00402024 -3.28335e-21)
(0.00240766 0.00244004 5.44132e-21)
(0.00240706 0.00244731 -4.31416e-21)
(0.004213 0.00396668 -1.03854e-20)
(0.00237477 0.00228714 0)
(0.00238618 0.00242392 -1.32579e-20)
(0.00250684 0.00254276 1.40708e-21)
(0.00445364 0.0041783 -3.15668e-21)
(0.00242114 0.00245647 1.4662e-21)
(0.00242572 0.00245389 0)
(0.00248801 0.00251675 7.38285e-21)
(0.00365677 0.00345673 0)
(0.00243446 0.00244825 -1.9386e-20)
(0.00251554 0.00254812 -2.43508e-21)
(0.00239393 0.00242643 2.78687e-25)
(0.00239308 0.00243098 -7.23124e-21)
(0.0042209 0.00396566 -7.59154e-21)
(0.00442299 0.0041808 -1.40031e-21)
(0.00306705 0.00333481 -9.29789e-21)
(0.00251021 0.00251143 -4.13131e-21)
(0.00239409 0.00242517 0)
(0.00240271 0.0024058 1.49706e-20)
(0.00530303 0.00457488 -1.68369e-20)
(0.0043092 0.00480203 9.0194e-21)
(0.00241975 0.00244745 0)
(0.00451448 0.00402749 7.53226e-21)
(0.00245926 0.00236671 3.47578e-22)
(0.00421292 0.00396711 0)
(0.002511 0.00253447 -1.34697e-20)
(0.00240895 0.00242852 -2.86777e-20)
(0.00421662 0.00395763 -1.42744e-21)
(0.00428614 0.00402442 6.54765e-21)
(0.00444845 0.00419271 4.97122e-21)
(0.00445559 0.00418305 4.60259e-21)
(0.00240397 0.00244104 -1.56715e-21)
(0.00240163 0.00243837 2.69673e-21)
(0.00238985 0.00240839 0)
(0.0024032 0.00243633 3.45053e-21)
(0.00422621 0.00395854 0)
(0.00427555 0.0040317 -5.97976e-24)
(0.0044455 0.00400692 0)
(0.00242956 0.00242646 1.39634e-20)
(0.00445376 0.00418174 6.31996e-21)
(0.00255458 0.00253291 0)
(0.00340317 0.00340766 9.39349e-21)
(0.00375707 0.00357407 -2.67459e-20)
(0.00252216 0.00254518 0)
(0.00251769 0.00254894 0)
(0.00243392 0.00244877 -6.32248e-21)
(0.00240226 0.00242555 -7.70434e-21)
(0.00422185 0.00395929 3.32256e-21)
(0.00434916 0.00434547 0)
(0.00428813 0.00402555 4.76368e-21)
(0.0043992 0.00416767 5.09873e-22)
(0.00243183 0.00246072 0)
(0.00423365 0.00400816 -1.88679e-21)
(0.00370349 0.00362561 2.91333e-23)
(0.00428781 0.00402339 5.98707e-21)
(0.0024097 0.00242017 -4.47963e-21)
(0.00243381 0.00244614 8.23655e-21)
(0.00444305 0.00419094 7.72872e-21)
(0.00428001 0.00403017 1.37945e-22)
(0.00427963 0.00402967 -4.03786e-21)
(0.00241578 0.00245018 3.21641e-21)
(0.0042109 0.00396836 4.63257e-21)
(0.00251271 0.00253234 1.24334e-20)
(0.00421144 0.00396799 -8.84703e-21)
(0.00418867 0.00506748 0)
(0.00235087 0.00226376 -6.66661e-22)
(0.00239969 0.00242062 -5.85836e-21)
(0.00428036 0.00403509 -5.85602e-21)
(0.00428764 0.00402569 8.23089e-21)
(0.0024163 0.00243541 0)
(0.00542891 0.00502772 -1.68013e-20)
(0.00421339 0.00396552 -1.16146e-20)
(0.00249118 0.00252117 1.45413e-20)
(0.00240107 0.00242217 -7.52548e-21)
(0.00429675 0.00405464 1.34996e-20)
(0.00239729 0.00241931 0)
(0.00240003 0.00242244 1.26866e-20)
(0.00240388 0.00244088 9.95835e-21)
(0.00242043 0.00242958 0)
(0.00428757 0.00402482 5.89249e-21)
(0.00445648 0.00418526 -1.05283e-20)
(0.00444642 0.00418656 -4.47443e-21)
(0.00445094 0.00417942 1.16504e-21)
(0.00444767 0.00419172 9.67409e-21)
(0.00443791 0.00419172 -1.23647e-20)
(0.00251232 0.00253283 0)
(0.00247032 0.00247377 -1.72588e-20)
(0.00239632 0.00240373 4.54251e-21)
(0.00428442 0.00402154 -1.21586e-21)
(0.00249861 0.00251675 -2.25801e-20)
(0.00239704 0.00243244 1.47745e-21)
(0.00279498 0.00270857 -9.04809e-21)
(0.00250983 0.00252753 -6.76146e-21)
(0.00428069 0.00403501 5.17648e-21)
(0.00445838 0.00418767 2.75307e-21)
(0.00239249 0.00241745 -7.96573e-21)
(0.00421205 0.00396765 0)
(0.00421497 0.00396958 3.88594e-20)
(0.00421629 0.00395755 2.46845e-21)
(0.00250069 0.00253564 -1.61322e-21)
(0.00239177 0.00243045 -2.1908e-21)
(0.00239525 0.00243158 2.12916e-21)
(0.00251302 0.00253672 2.61139e-20)
(0.00421349 0.00397268 1.4208e-20)
(0.00251927 0.00254997 5.30579e-21)
(0.00242402 0.00244844 5.67879e-21)
(0.00250769 0.00253171 -2.59446e-20)
(0.00240757 0.00242666 7.33246e-21)
(0.00422455 0.00396149 2.69356e-21)
(0.00240173 0.00242168 2.43116e-20)
(0.00421732 0.00396483 -1.62304e-20)
(0.00250149 0.00251832 -7.06833e-21)
(0.00249507 0.0025336 0)
(0.00243262 0.00244357 2.4877e-20)
(0.00428074 0.00402603 -5.0291e-21)
(0.00241026 0.00244617 0)
(0.00239461 0.00242049 -5.32075e-21)
(0.00241943 0.0024548 3.9768e-24)
(0.00420885 0.00395676 0)
(0.00422548 0.0039597 -2.32906e-21)
(0.00248517 0.00251987 3.53004e-21)
(0.00444455 0.0041923 5.52881e-21)
(0.00422491 0.00395844 -4.31878e-21)
(0.00428108 0.00403325 5.75226e-21)
(0.00239425 0.00242489 -7.32993e-21)
(0.00421423 0.00397037 -1.34639e-20)
(0.00431203 0.0040922 -2.75679e-20)
(0.00430466 0.00407352 1.37237e-20)
(0.00241745 0.00244768 2.85182e-21)
(0.00250677 0.00253702 0)
(0.00421384 0.00396841 -2.43018e-20)
(0.00282408 0.00269333 0)
(0.00239276 0.00241689 5.92718e-21)
(0.00454919 0.00416244 7.67815e-21)
(0.0023943 0.00241632 4.11237e-21)
(0.00242585 0.00244892 5.90417e-21)
(0.00301748 0.00288553 8.0884e-21)
(0.00250701 0.00253273 1.12029e-22)
(0.00239465 0.00242833 -6.88337e-21)
(0.00239498 0.00242956 -4.78824e-21)
(0.0024278 0.00245812 -6.02783e-21)
(0.004454 0.00417964 -2.11723e-21)
(0.00241772 0.0024507 3.41895e-21)
(0.00250157 0.00247524 -7.21442e-21)
(0.00428663 0.00402241 -2.19441e-21)
(0.00444666 0.00419502 -1.04426e-20)
(0.00460286 0.00415654 0)
(0.00428302 0.00403631 1.25971e-20)
(0.00240281 0.00242341 1.22938e-20)
(0.00251039 0.00253077 2.96833e-20)
(0.00249379 0.00252428 -2.90989e-20)
(0.00416834 0.00394801 -2.64329e-21)
(0.00243185 0.00246164 -8.29919e-21)
(0.00430643 0.0041366 7.02378e-21)
(0.00422554 0.00396202 0)
(0.00242676 0.00245254 1.57343e-20)
(0.00247871 0.00250972 -4.99376e-22)
(0.00421286 0.00396842 0)
(0.00240522 0.00242355 -7.42047e-25)
(0.00442938 0.00418457 -2.2044e-20)
(0.00499247 0.00419395 -8.26742e-21)
(0.00517247 0.00475223 8.40269e-21)
(0.0044443 0.00418845 0)
(0.00421386 0.00397256 7.19781e-21)
(0.00243242 0.00245487 5.56913e-21)
(0.0048123 0.00481999 0)
(0.00250439 0.00250455 0)
(0.00292305 0.00283428 -2.81522e-20)
(0.00240891 0.00242735 0)
(0.00453353 0.00407295 0)
(0.00240218 0.00242371 0)
(0.00240641 0.00242558 0)
(0.00238478 0.00242363 -1.45802e-21)
(0.00238274 0.00241824 1.56889e-21)
(0.00251377 0.00252349 1.51719e-20)
(0.00251759 0.0025398 2.00196e-20)
(0.00444573 0.00418793 -6.03735e-21)
(0.00240262 0.00244134 1.84806e-21)
(0.00438204 0.004158 -1.39413e-22)
(0.00242274 0.00244553 7.52321e-21)
(0.00444888 0.00419185 3.49607e-21)
(0.00236546 0.00241124 -1.15353e-20)
(0.00428512 0.00402004 3.10084e-21)
(0.00421596 0.00396556 0)
(0.00560349 0.00479602 -8.30435e-21)
(0.00238745 0.00242024 0)
(0.00243463 0.00244724 6.62912e-21)
(0.00245911 0.00245308 -7.0186e-21)
(0.00250596 0.00253403 0)
(0.00249481 0.00246058 -1.34583e-22)
(0.00239892 0.00242273 5.42161e-21)
(0.00247787 0.00245015 7.20768e-21)
(0.00243145 0.00243635 -8.76592e-21)
(0.00250484 0.00252858 1.16861e-20)
(0.00257381 0.00295053 4.02402e-20)
(0.00421681 0.0040008 -4.15592e-23)
(0.00444621 0.004194 -6.72036e-21)
(0.00249399 0.00245867 -2.20632e-20)
(0.00241673 0.00245077 7.86845e-22)
(0.0032935 0.0034522 -9.59344e-21)
(0.0023906 0.00239501 1.56811e-20)
(0.00443483 0.00417979 7.31892e-21)
(0.00241237 0.00244569 7.95106e-21)
(0.00249899 0.00253374 7.68876e-21)
(0.00250434 0.00250562 4.76906e-21)
(0.00260205 0.00259655 -8.05034e-21)
(0.00242945 0.00245223 0)
(0.00243034 0.00245023 1.21505e-20)
(0.00241475 0.00244951 3.65088e-21)
(0.00241219 0.00241217 2.46831e-20)
(0.00251819 0.00254699 0)
(0.00240641 0.00241118 -1.4149e-20)
(0.00428299 0.00402858 0)
(0.00247236 0.00252446 -4.33029e-21)
(0.00310211 0.00289474 8.56184e-21)
(0.0042868 0.00402726 0)
(0.00241992 0.00244884 -2.2762e-24)
(0.00250594 0.00253694 -2.75078e-24)
(0.00265924 0.00260488 0)
(0.00338182 0.00316235 -8.46173e-21)
(0.00454664 0.00431071 -1.83202e-20)
(0.00241831 0.00243633 -9.0739e-24)
(0.00237634 0.00242228 0)
(0.00421494 0.00397201 6.74118e-21)
(0.00445259 0.00417808 -2.97824e-21)
(0.00239713 0.00241275 1.06529e-21)
(0.00250712 0.00253184 -6.95793e-21)
(0.00240194 0.00242397 0)
(0.00240088 0.00242355 -1.29366e-20)
(0.00272983 0.00276995 1.86962e-20)
(0.00427597 0.00402005 -2.90567e-21)
(0.0024074 0.00242777 -1.31551e-20)
(0.00249722 0.0025241 0)
(0.00426527 0.00402217 -7.77233e-22)
(0.00248997 0.00251585 -2.28433e-20)
(0.00428783 0.00402273 -3.21202e-21)
(0.00240483 0.00243899 -8.3599e-21)
(0.00420961 0.00397183 0)
(0.00238291 0.00241951 -4.95728e-21)
(0.00250558 0.00252187 1.18039e-22)
(0.00251236 0.00250824 4.34455e-21)
(0.00250469 0.00254101 3.16894e-21)
(0.00189064 0.00192143 0)
(0.002406 0.00242624 4.16873e-21)
(0.00247714 0.00245539 -1.42164e-20)
(0.00443353 0.00418996 2.9134e-20)
(0.00249986 0.00253609 3.51521e-21)
(0.00415294 0.00393909 6.50594e-22)
(0.00422432 0.00396271 -6.65788e-21)
(0.00491035 0.00511687 8.4614e-21)
(0.00252904 0.00254352 -7.62845e-21)
(0.00241756 0.0024129 -4.98143e-21)
(0.00445643 0.00418307 7.92099e-21)
(0.00249356 0.0024981 4.98011e-21)
(0.00425748 0.00402171 6.9317e-22)
(0.00247393 0.00252227 -2.74207e-23)
(0.00247622 0.00254598 -2.16096e-20)
(0.00240941 0.00243995 0)
(0.00444338 0.00419525 0)
(0.00420525 0.00396862 1.39014e-20)
(0.0025104 0.0025474 1.91689e-21)
(0.0042223 0.00395729 1.46244e-21)
(0.00241265 0.00244872 4.8185e-21)
(0.00247604 0.00252728 0)
(0.00241247 0.00244122 -9.47918e-21)
(0.00421348 0.00396863 0)
(0.00249796 0.00249711 -9.26173e-21)
(0.00428035 0.00395881 -1.66151e-20)
(0.00241034 0.00241781 5.31525e-21)
(0.00238739 0.00241956 -4.89015e-21)
(0.00238787 0.0024388 -4.48505e-21)
(0.005212 0.00436751 1.69372e-20)
(0.00421335 0.0039719 -1.45444e-20)
(0.00445888 0.00418829 0)
(0.00441523 0.00414926 1.2351e-20)
(0.00250508 0.0025014 -5.24413e-25)
(0.00240933 0.00243956 -4.57808e-21)
(0.00239417 0.0023982 4.86374e-21)
(0.00445686 0.0041933 0)
(0.00427965 0.0040355 0)
(0.00428144 0.00403124 -5.24504e-21)
(0.00250265 0.0025071 9.94295e-21)
(0.00239113 0.00242162 -1.01146e-20)
(0.00251017 0.00253634 0)
(0.00428426 0.00404113 2.54429e-20)
(0.00239204 0.00242252 1.46337e-20)
(0.00249694 0.0025241 0)
(0.00524215 0.00433842 0)
(0.00238359 0.00242154 -8.61187e-21)
(0.00445314 0.00417656 -2.77688e-21)
(0.00242007 0.0024211 4.54312e-21)
(0.00250348 0.00250496 0)
(0.00237866 0.00241393 -1.89352e-21)
(0.00239398 0.00244451 5.54954e-21)
(0.00242492 0.00246004 1.98791e-21)
(0.0042861 0.0040185 2.83033e-21)
(0.0042125 0.00396639 1.12572e-20)
(0.00240529 0.00244164 -8.06425e-21)
(0.00247142 0.00251901 -1.34995e-22)
(0.00444754 0.00419014 3.61827e-21)
(0.00241813 0.00242176 0)
(0.00238326 0.00241901 0)
(0.00444652 0.00418916 0)
(0.00123879 0.00136337 0)
(0.00443373 0.00417884 0)
(0.00240311 0.00243798 -2.9974e-21)
(0.00241257 0.00241995 1.13285e-20)
(0.00253731 0.00253405 -7.76435e-21)
(0.00422449 0.00395902 3.88557e-21)
(0.00239919 0.00240364 2.28206e-20)
(0.00236706 0.0024111 -3.28548e-21)
(0.00247656 0.0025423 0)
(0.0042886 0.00402458 -2.68204e-21)
(0.00240769 0.00241401 0)
(0.00236215 0.00241543 1.17387e-22)
(0.00243028 0.00245 -7.64714e-21)
(0.00236929 0.00241215 8.95549e-21)
(0.00247945 0.00252974 3.60811e-21)
(0.00252908 0.00247253 -1.59487e-20)
(0.00247485 0.00251893 -2.76593e-23)
(0.002398 0.00240492 -1.53172e-20)
(0.00248729 0.00232934 8.05286e-21)
(0.00237738 0.00242062 0)
(0.00239226 0.00239637 0)
(0.00238991 0.00245629 0)
(0.00105097 0.00187949 2.4748e-20)
(0.00249375 0.00249905 -7.97467e-24)
(0.00239105 0.0024387 4.85354e-21)
(0.00250119 0.00250679 -2.15886e-20)
(0.00239328 0.00243513 -2.79391e-23)
(0.00238534 0.00239208 -2.69022e-20)
(0.00242883 0.00242006 0)
(0.00428629 0.00402911 7.10265e-21)
(0.00236221 0.00241331 0)
(0.00238386 0.00239187 -1.40789e-20)
(0.002475 0.00251558 0)
(0.002394 0.00243574 8.83271e-21)
(0.00247418 0.00251594 2.96855e-21)
(0.00239244 0.00243589 6.12117e-21)
(0.00247672 0.00259341 6.36992e-22)
(0.0023899 0.00250652 -5.31402e-22)
(0.00250052 0.00250426 -6.78527e-21)
(0.0024245 0.00239922 -6.61049e-21)
(0.00250153 0.00272831 8.44626e-22)
(0.00249454 0.00249841 -1.33399e-20)
(0.00247466 0.00252477 4.69063e-21)
(0.00240359 0.00241289 5.54358e-21)
(0.00239096 0.00244183 0)
(0.00239141 0.00243275 5.45918e-21)
(0.00247173 0.00252178 -2.56039e-21)
(0.00238959 0.00243518 -2.64726e-21)
(0.00242291 0.00239516 -6.88771e-21)
(0.00238434 0.00239206 -1.46562e-20)
(0.00250601 0.0025091 -2.08674e-20)
(0.00242924 0.00246047 -7.07532e-21)
(0.00254338 0.00274891 5.01626e-21)
(0.00250158 0.00250487 -5.91534e-21)
(0.00239482 0.00239728 1.1955e-20)
(0.00240947 0.00241298 -1.23573e-20)
(0.0023892 0.00244117 0)
(0.00235369 0.00240199 -2.40768e-20)
(0.00420331 0.00395736 0)
(0.00247876 0.00251956 -6.74027e-21)
(0.00233557 0.00205213 -2.46231e-20)
(0.00247953 0.0025197 -3.63869e-21)
(0.00239264 0.00240004 1.41564e-20)
(0.00188346 0.00215979 2.98134e-20)
(0.00236716 0.00241523 1.03785e-20)
(0.00247417 0.00252627 0)
(0.00247728 0.00251611 -6.20056e-21)
(0.0024879 0.00245074 7.18092e-21)
(0.00251205 0.00251493 2.30475e-20)
(0.00239152 0.0023987 -1.35681e-20)
(0.00240639 0.00237994 0)
(0.00241362 0.00263757 1.45904e-21)
(0.00250061 0.00250449 2.28707e-20)
(0.00250299 0.00250764 0)
(0.00250684 0.00251093 -8.05716e-24)
(0.00233811 0.00219801 -9.65605e-24)
(0.00236367 0.00239526 8.4818e-24)
(0.00249458 0.00249795 -7.03528e-21)
(0.00249549 0.00250041 -8.55627e-24)
(0.00239795 0.00242443 1.56182e-20)
(0.0024003 0.00232521 -1.71425e-20)
(0.00239776 0.0024076 -8.30863e-21)
(0.00238799 0.00242573 -8.23474e-21)
(0.00253266 0.00260631 2.10153e-23)
(0.00238745 0.00239416 -1.5249e-20)
(0.0023647 0.00241546 -4.33639e-21)
(0.00254919 0.00265363 -7.49916e-21)
(0.00422611 0.00395958 -2.79537e-21)
(0.0025884 0.00274764 -2.45033e-20)
(0.0024816 0.0025653 -7.24476e-22)
(0.00239536 0.00247888 -9.66667e-23)
(0.00239443 0.0024009 0)
(0.00239079 0.00239982 0)
(0.00236532 0.00241773 -1.94549e-21)
(0.0023686 0.00241509 -1.46879e-22)
(0.00236489 0.00241419 -2.38719e-21)
(0.00236631 0.00241304 -5.36144e-21)
(0.00236325 0.00241225 5.38669e-21)
(0.0041874 0.00395623 2.33288e-21)
(0.00240238 0.00241254 -1.5924e-20)
(3.05105e-05 2.27663e-05 -1.02368e-20)
(4.52277e-05 -1.64355e-05 5.05557e-21)
(9.25326e-05 0.000120368 1.41823e-21)
(0.000186092 -3.6008e-05 2.21168e-21)
(0.000989786 9.04626e-05 0)
(6.90818e-05 7.2447e-05 -9.14284e-22)
(0.000623542 0.000369597 3.80107e-20)
(5.89723e-05 0.00014669 0)
(0.000214357 -4.53002e-05 0)
(8.00707e-05 -1.72316e-05 -1.48457e-22)
(0.000625453 0.000106462 -1.4574e-20)
(0.00441939 0.00436336 -1.00746e-20)
(0.0044177 0.00436298 4.72656e-21)
(0.00467629 0.00460892 6.83189e-23)
(0.00427521 0.00401802 1.23056e-20)
(0.00421054 0.00395559 1.31086e-20)
(0.00449207 0.00443585 0)
(0.00467634 0.0046089 -4.52949e-21)
(0.00441104 0.00436467 -8.58805e-21)
(0.00448377 0.00443568 0)
(0.00449455 0.00443536 0)
(0.00420378 0.00397169 -1.14569e-20)
(0.00449624 0.00443389 -1.03273e-20)
(0.00420616 0.0039706 6.15277e-21)
(0.00441184 0.00436461 4.33482e-21)
(0.00467162 0.00460739 0)
(0.00449717 0.00443677 5.8044e-21)
(0.0044236 0.00436366 1.8619e-20)
(0.00449438 0.0044366 1.1071e-20)
(0.00467181 0.00460787 0)
(0.0046736 0.00460898 0)
(0.00449891 0.00443546 -1.75722e-20)
(0.00467285 0.00461043 5.20461e-21)
(0.00440654 0.00437523 0)
(0.00440301 0.00437843 0)
(0.00465996 0.00462362 0)
(0.00465975 0.00462215 -6.27099e-21)
(0.00447884 0.00444981 0)
(0.0044066 0.00437574 -3.11281e-21)
(0.00447975 0.00444739 -5.8602e-21)
(0.00466918 0.00461139 3.59398e-21)
(0.00467119 0.00460829 -5.30314e-21)
(0.0046667 0.00461332 1.35785e-20)
(0.00440221 0.00437748 0)
(0.00466186 0.00461811 -6.58537e-21)
(0.00465969 0.00462411 0)
(0.00467393 0.00460862 -8.36489e-21)
(0.00440318 0.00437741 3.11981e-21)
(0.00448031 0.00444536 -8.28626e-21)
(0.00443764 0.00419137 0)
(0.00442293 0.00436376 -1.29887e-20)
(0.00452014 0.00442135 -6.52108e-21)
(0.00465741 0.00462267 -1.05246e-20)
(0.00442297 0.00436328 -1.32068e-20)
(0.00465892 0.00462241 0)
(0.00442266 0.00436363 0)
(0.0046747 0.00461339 1.08512e-20)
(0.00443298 0.004186 1.27665e-20)
(0.00448024 0.00444547 2.69518e-21)
(0.00443381 0.00419194 -5.83384e-21)
(0.00448098 0.00444499 4.86927e-21)
(0.00465775 0.00462242 4.6843e-21)
(0.00442206 0.00436327 -7.13404e-21)
(0.00442047 0.00436306 7.41639e-21)
(0.00440308 0.00437712 5.25632e-21)
(0.00448089 0.00444577 -5.08754e-21)
(0.00465752 0.00462312 -4.93184e-21)
(0.00441691 0.0043626 0)
(0.00442164 0.00436339 7.06794e-21)
(0.00440532 0.00437583 -5.51228e-21)
(0.00465755 0.00462253 -4.28585e-21)
(0.00453252 0.00441158 -1.36137e-20)
(0.00448004 0.00444471 -4.46813e-21)
(0.0045277 0.00437245 0)
(0.00454733 0.00439808 -6.87613e-21)
(0.00440415 0.00437694 -6.07062e-21)
(0.00467521 0.00461 -1.28352e-20)
(0.00441919 0.00436248 -2.23864e-20)
(0.00454902 0.00438538 1.39307e-20)
(0.00441461 0.00436406 -7.70527e-21)
(0.00440312 0.00437594 9.11013e-21)
(0.00447786 0.00444592 0)
(0.00465667 0.00462357 0)
(0.00441416 0.00436414 1.5769e-20)
(0.00448714 0.00436056 0)
(0.00465649 0.00462561 1.88894e-21)
(0.00447683 0.00444807 1.9606e-21)
(0.00440426 0.00437769 3.77749e-21)
(0.00466823 0.004614 0)
(0.00447943 0.00422825 -1.36819e-20)
(0.00443294 0.00434179 0)
(0.00445571 0.00433696 1.49363e-20)
(0.0046734 0.0046134 -6.69332e-21)
(0.00440292 0.0043762 4.13934e-21)
(0.00467498 0.0046126 0)
(0.00445362 0.00429182 7.52155e-21)
(0.00469197 0.00458713 1.5021e-20)
(0.00467085 0.0046135 6.99921e-21)
(0.00429073 0.00381414 1.72195e-20)
(0.00415064 0.00378401 8.69076e-21)
(0.00441698 0.00435904 -8.02498e-21)
(0.00440353 0.00437644 -7.27837e-21)
(0.00424475 0.00354847 8.13939e-21)
(0.00474568 0.00453481 0)
(0.0044698 0.00445838 1.83056e-21)
(0.00412415 0.00366272 -1.77679e-20)
(0.00464836 0.00463503 1.73629e-21)
(0.00444443 0.00446789 1.97397e-21)
(0.00445943 0.0044641 8.55474e-22)
(0.00463864 0.00464067 -8.00709e-22)
(0.00442672 0.00357512 1.64547e-20)
(0.00462327 0.00464446 0)
(0.00458997 0.00464551 9.71875e-22)
(0.0046067 0.00441484 9.10452e-21)
(0.0044117 0.00446892 1.60573e-21)
(0.00439964 0.00448748 1.84578e-20)
(0.00505477 0.004593 3.24534e-20)
(0.000804363 0.000586302 -8.28715e-21)
(-3.57703e-05 0.00111985 4.3529e-24)
(3.56616e-05 2.84243e-05 -8.50826e-21)
(5.12034e-05 4.52739e-06 -1.99698e-21)
(6.24828e-05 0.000259789 0)
(0.000118008 -2.59743e-05 -6.92823e-21)
(6.72981e-05 -2.36345e-06 2.91801e-22)
(0.000698533 0.000610704 -8.71266e-24)
(0.00239894 0.00240407 -1.68564e-20)
(0.00449512 0.00443378 5.04501e-21)
(0.00239329 0.0023959 0)
(0.00240037 0.002444 3.61813e-21)
(0.00248762 0.00252384 7.36704e-21)
(0.00239629 0.00244091 -3.20734e-21)
(0.00250477 0.00250644 1.88962e-20)
(0.00237061 0.00241892 0)
(0.00242373 0.0024056 6.45232e-21)
(0.00248006 0.00253065 -4.13188e-21)
(0.00239342 0.00244511 -1.38437e-22)
(0.0025286 0.002541 -7.71129e-21)