/*--------------------------------*- C++ -*----------------------------------*\
  =========                 |
  \\      /  F ield         | OpenFOAM: The Open Source CFD Toolbox
   \\    /   O peration     | Website:  https://openfoam.org
    \\  /    A nd           | Version:  7
     \\/     M anipulation  |
\*---------------------------------------------------------------------------*/
FoamFile
{
    version     2.0;
    format      ascii;
    class       surfaceScalarField;
    location    "89.5";
    object      phi;
}
// * * * * * * * * * * * * * * * * * * * * * * * * * * * * * * * * * * * * * //

dimensions      [0 3 -1 0 0 0 0];

internalField   nonuniform List<scalar> 
1111
(
6.90078e-09
1.30085e-08
-1.60214e-08
-3.88797e-09
6.86685e-09
-1.18094e-08
1.18433e-08
-1.47504e-08
5.64138e-09
8.92639e-09
1.82629e-10
8.2654e-10
-9.5168e-10
-1.43564e-08
1.44815e-08
-1.43106e-08
1.40843e-08
1.05291e-09
-1.63348e-09
1.49124e-08
2.14959e-09
-3.02359e-09
9.54547e-09
-9.75126e-09
3.22938e-09
-6.71821e-09
-1.26146e-08
1.26001e-08
6.73272e-09
-5.02958e-08
-2.60486e-08
7.63444e-08
-8.12782e-09
7.69644e-09
7.29824e-09
3.35056e-09
3.63617e-10
-3.43204e-09
-2.82129e-10
1.58533e-08
-1.62216e-08
-2.32079e-08
2.35761e-08
-9.66302e-09
-7.8952e-09
8.80151e-09
8.75671e-09
-3.55548e-08
1.76998e-08
-3.23193e-08
5.01743e-08
9.50294e-09
-1.96351e-09
-1.42576e-08
-6.87983e-10
1.62447e-09
-3.10244e-09
2.16596e-09
-3.91929e-09
1.33406e-08
1.96631e-09
-1.13876e-08
8.81633e-09
-2.6355e-09
-1.50487e-08
8.86787e-09
3.73187e-08
-2.99907e-08
-7.32804e-09
-1.94518e-08
3.70529e-10
1.72374e-08
1.8439e-09
-1.03816e-09
4.2269e-09
-1.78537e-08
1.4665e-08
-6.12229e-08
-3.96231e-09
6.51853e-08
1.40815e-10
-1.17052e-09
-3.35015e-10
1.36472e-09
-1.71678e-09
-1.3632e-08
-9.62257e-11
-2.48736e-10
1.93086e-10
1.51876e-10
-1.03498e-08
-8.489e-09
1.3017e-08
5.82184e-09
6.843e-10
-2.12477e-09
-8.30179e-09
9.74225e-09
8.53678e-09
7.98128e-10
-9.57268e-09
2.37775e-10
-2.87717e-09
-7.98451e-09
1.10579e-08
-1.962e-10
1.14057e-08
-9.60822e-10
-1.62851e-09
-8.36163e-10
8.3704e-10
2.39023e-12
-3.2679e-12
-1.12272e-10
7.08065e-10
2.43705e-10
-8.39498e-10
-4.52692e-10
-3.93657e-11
4.85227e-10
6.82983e-12
-3.73052e-11
-8.10465e-10
1.11949e-10
7.35821e-10
-9.78299e-11
-7.75636e-10
9.48605e-10
-1.84239e-08
-1.97656e-09
-3.71805e-10
4.12056e-11
-1.22092e-10
1.33862e-08
-1.32419e-08
4.08262e-09
-3.61469e-10
5.58057e-10
3.32261e-10
-5.28849e-10
-6.53891e-11
-1.51625e-09
1.25496e-09
3.26678e-10
-2.00488e-09
1.05344e-08
-1.15531e-08
-2.65311e-10
-1.54546e-10
4.80525e-11
-8.75265e-09
1.04419e-08
-9.81706e-09
1.22383e-08
-1.71481e-08
4.62032e-09
2.89512e-10
5.60936e-11
-1.53456e-10
-1.67948e-10
1.70961e-10
7.74152e-10
-1.08072e-10
-5.95329e-08
7.42306e-08
-1.46977e-08
1.0269e-09
-2.41972e-10
-1.14985e-09
3.64919e-10
1.14867e-09
1.03109e-08
-1.37159e-08
2.25629e-09
-1.71939e-09
7.68512e-09
-8.93272e-09
2.96698e-09
-6.69963e-09
5.63721e-09
5.65738e-09
-4.59496e-09
-7.62669e-09
-1.7196e-09
1.74979e-09
7.59651e-09
-1.83041e-10
-9.09164e-08
9.13026e-08
-2.0318e-10
-2.57593e-10
-8.97525e-08
9.01628e-08
-1.52732e-10
8.30788e-08
-1.49339e-09
1.10083e-10
-8.16955e-08
-2.89132e-09
-4.5342e-10
6.49683e-10
8.30615e-10
-4.53395e-10
3.92766e-09
-1.13101e-09
3.45628e-09
-6.25293e-09
-9.51811e-10
8.80801e-10
-1.49407e-08
6.58986e-09
9.76517e-09
1.04928e-09
-1.05401e-08
-2.74322e-10
-6.12015e-09
1.34275e-08
1.05714e-09
-8.36451e-09
1.43683e-08
-4.50161e-09
3.71754e-09
-1.35842e-08
1.53999e-08
1.68125e-09
-1.65239e-09
-1.93028e-10
-2.00631e-08
-7.42654e-09
2.76827e-08
1.43428e-08
-8.72718e-09
-1.92664e-09
7.96145e-09
-1.2155e-08
4.55509e-12
6.38396e-11
-1.21824e-09
-3.62104e-08
-2.33225e-08
8.29461e-09
2.62788e-10
3.68088e-09
-7.00877e-09
1.10991e-08
6.35157e-09
-5.87502e-10
3.13236e-10
4.73713e-10
-1.99447e-10
5.75779e-09
-4.77494e-09
3.65552e-09
-4.63837e-09
-4.46017e-10
-6.21813e-10
2.57366e-10
6.46228e-10
-5.73643e-10
-6.49111e-12
-8.11589e-10
7.05808e-10
-1.81033e-08
2.42596e-09
1.56058e-09
1.41168e-08
2.17805e-10
-6.84877e-10
-1.2043e-10
-4.12886e-09
-1.51121e-08
1.13767e-09
5.61106e-09
1.20571e-08
-5.22698e-09
-1.24412e-08
1.64236e-08
6.97711e-10
-1.5887e-08
-1.23433e-09
-6.6888e-10
4.46048e-10
5.36068e-10
-3.84689e-10
1.91609e-10
1.9308e-10
-7.40466e-09
-3.56795e-09
4.27298e-09
-2.20362e-10
3.40479e-10
-1.20117e-10
1.15495e-09
-1.56337e-08
-8.12151e-10
9.81841e-09
-1.10111e-08
-9.44865e-10
-3.91179e-10
1.29107e-08
4.41744e-09
-4.16391e-09
-1.31643e-08
9.53844e-11
7.14963e-09
-7.91763e-09
6.40522e-09
-1.66929e-09
-8.94487e-09
8.17225e-09
2.4419e-09
-1.89041e-09
6.70133e-10
-1.38918e-08
-1.21239e-10
-9.91228e-11
1.94616e-10
7.52731e-10
-8.57404e-09
7.51367e-10
1.72885e-08
-1.61626e-09
-1.22528e-08
1.36134e-08
-1.36061e-09
1.22149e-08
1.3952e-08
-1.55075e-08
-1.06594e-08
-5.33066e-10
9.79633e-10
-4.46567e-10
3.80667e-10
-3.02127e-10
-7.85403e-11
3.67515e-10
-6.36706e-11
-3.03845e-10
1.38293e-09
-1.12045e-09
-2.62481e-10
-1.06113e-08
8.4059e-10
9.77066e-09
2.01951e-09
-6.36583e-10
8.96466e-09
-1.53929e-08
7.557e-09
-9.08177e-09
5.75931e-11
3.69297e-09
-4.00005e-10
-2.38313e-09
2.44072e-09
-6.56663e-09
7.89997e-09
-1.33334e-09
-5.53568e-10
4.24892e-09
2.32299e-10
1.727e-08
-1.4482e-08
-1.63935e-09
-6.0171e-09
5.39207e-09
-5.0598e-10
-1.92585e-10
5.88233e-09
-5.87572e-09
-6.61626e-12
6.89647e-09
4.5187e-09
-1.05122e-11
-1.59918e-08
1.04622e-08
1.77445e-08
5.77326e-09
8.27283e-09
8.19894e-09
-6.84883e-09
1.35213e-09
-1.19634e-08
4.15528e-10
1.2525e-09
-1.29771e-08
2.86503e-09
-4.24309e-10
1.15014e-08
-1.08037e-08
-2.51524e-10
-7.91171e-10
-1.38065e-08
7.62022e-09
7.38394e-10
-5.83985e-12
-8.89846e-09
5.03811e-09
-3.01837e-08
-1.25098e-08
-2.79299e-09
1.49629e-09
1.40892e-08
1.1018e-08
-1.07801e-08
-1.43271e-08
1.5422e-08
-3.12833e-09
-1.22937e-08
1.61843e-09
3.97123e-09
-1.06851e-09
-9.01066e-10
-8.6177e-10
1.15858e-09
6.04259e-10
-2.33217e-10
3.53668e-10
3.53262e-10
6.21396e-08
-6.21653e-08
2.5701e-11
6.20601e-08
-6.2364e-08
3.03894e-10
8.37134e-10
6.47345e-08
-6.55612e-08
8.26698e-10
6.4127e-08
6.075e-10
-2.24402e-10
-6.65065e-08
9.45351e-10
-6.20537e-08
6.19192e-08
1.34547e-10
1.31552e-09
-6.7822e-08
-6.22135e-08
1.59787e-10
1.25658e-08
-7.20734e-10
1.33383e-09
-3.70015e-09
3.08705e-09
3.23079e-10
-1.18541e-09
9.34025e-10
-5.86237e-10
1.39146e-09
-1.62845e-09
8.23227e-10
1.40672e-09
-1.5106e-09
1.67713e-10
-5.45542e-11
-3.42619e-09
2.77655e-09
-2.00712e-09
2.65676e-09
-4.77451e-10
-2.74721e-09
2.50393e-09
-3.57665e-09
-5.79325e-09
5.86495e-10
-6.17649e-10
1.21266e-09
1.11282e-09
-6.48925e-09
7.92643e-09
3.08152e-09
1.97761e-08
-4.35414e-09
-7.07145e-10
2.85923e-10
1.00772e-09
-1.00945e-08
-2.6116e-08
5.32255e-09
-4.28522e-09
-3.16923e-09
2.1319e-09
1.03812e-10
2.34167e-11
3.57999e-10
-2.57777e-09
3.34536e-09
8.93643e-09
7.44202e-10
-2.54099e-10
2.10204e-09
-2.32539e-09
1.87887e-09
1.47329e-08
1.33083e-08
-2.69417e-08
3.27005e-08
6.33984e-09
-2.28302e-08
-1.04513e-08
1.84812e-08
-1.79706e-08
1.05073e-08
-8.39346e-11
-1.89048e-10
-1.23761e-09
-1.71483e-09
-2.93482e-09
3.54757e-09
1.50827e-08
-6.10338e-10
-1.38022e-08
-6.23405e-10
-2.37219e-09
2.48381e-10
1.54684e-08
1.77456e-08
1.37048e-08
7.26203e-10
-1.68361e-09
-1.27474e-08
-1.5537e-09
5.98455e-09
1.25372e-08
-5.07418e-10
-1.05939e-09
-3.62167e-09
2.77993e-09
3.61829e-09
2.48882e-09
1.44581e-08
4.25079e-09
-1.42915e-08
1.79853e-08
-1.76502e-09
2.50612e-09
-3.40488e-09
1.89958e-09
-4.90502e-09
1.29466e-08
-1.19609e-08
-1.40366e-08
3.39388e-10
8.79215e-09
-1.81156e-09
1.51345e-09
1.51077e-09
-8.65918e-09
7.06834e-10
-4.55747e-09
-6.01076e-09
1.21976e-08
-1.4846e-08
1.11372e-09
1.6705e-09
-2.20814e-09
1.67695e-08
-1.62319e-08
-1.07636e-09
1.41708e-08
3.05666e-09
-4.41621e-09
-1.40334e-08
7.54023e-09
-1.73591e-08
-8.15166e-09
6.79223e-09
5.86771e-09
1.4575e-08
-9.98054e-09
3.03564e-09
9.38681e-09
9.85546e-09
3.84423e-09
-4.18931e-09
2.17213e-08
-1.91674e-08
4.98636e-09
-1.05347e-08
2.17254e-09
5.65203e-09
1.38939e-08
-2.88658e-10
1.2792e-08
-1.35797e-08
-1.9076e-09
1.84435e-09
-8.48228e-10
9.11479e-10
1.10303e-08
-6.37514e-09
7.40195e-09
-1.09314e-08
1.44601e-09
-4.7463e-09
1.14664e-08
-1.19471e-08
-7.56739e-09
9.1936e-09
9.40412e-09
1.29014e-08
6.50687e-10
-1.38408e-08
1.48087e-09
7.90529e-10
-1.11096e-08
-6.7236e-09
1.02658e-08
-1.4356e-09
2.51553e-09
-8.97628e-09
4.79518e-09
-5.25984e-09
1.15626e-08
-3.4849e-09
-1.17713e-08
3.69364e-09
-4.47898e-09
1.12953e-08
1.86832e-09
1.126e-09
-5.03602e-09
-1.77759e-08
1.04792e-08
1.23328e-08
7.50486e-10
-1.10012e-08
-9.99705e-09
1.59622e-08
1.2575e-08
2.85996e-09
-9.78292e-09
-1.33205e-08
-3.2064e-10
-1.27553e-08
1.62934e-10
-7.65779e-10
1.16607e-08
1.2536e-08
-8.23589e-09
1.66315e-08
-1.60099e-08
3.6292e-09
-4.73289e-10
1.7668e-09
1.28233e-08
-3.91933e-09
-1.26858e-08
-5.07462e-09
1.71452e-09
4.6126e-09
1.22554e-08
-7.24957e-09
9.35708e-10
-1.6202e-09
7.37268e-10
-1.02467e-09
5.87441e-09
2.63542e-08
-1.30515e-10
-9.88597e-09
1.00165e-08
2.85513e-08
-2.23063e-08
2.20888e-08
1.97339e-08
-1.27162e-08
-2.68395e-09
1.50897e-08
1.88195e-10
-1.21437e-08
-4.23443e-10
-6.01834e-09
-1.86747e-09
2.2183e-09
1.51749e-09
-3.83627e-10
-1.10888e-08
1.14921e-08
-1.97364e-11
3.09742e-09
-5.20505e-09
-1.10626e-08
1.06133e-08
-9.07096e-10
-1.07901e-08
-1.96084e-10
-1.12511e-08
-2.56897e-09
-1.20354e-08
2.18205e-09
7.90376e-09
5.14005e-09
-3.52504e-10
-1.18034e-08
1.17723e-08
5.78885e-10
-8.80973e-09
5.16508e-09
-1.48214e-09
2.29368e-09
-2.19936e-09
-1.30519e-08
-1.26551e-08
1.21721e-08
-1.02104e-08
-1.57928e-08
1.00114e-08
9.26795e-09
8.40094e-10
2.66988e-09
-1.25559e-08
1.14371e-08
1.6696e-09
3.92244e-09
2.95779e-10
-5.02899e-10
-2.38897e-10
-4.1375e-09
2.55236e-09
-7.87054e-10
1.88748e-10
-2.2203e-10
3.32814e-11
-2.67596e-09
1.30334e-08
2.2175e-09
2.54706e-09
-3.08802e-11
-1.42853e-09
-4.75348e-10
-2.3443e-09
-3.21844e-10
1.29847e-08
1.00568e-08
-3.3448e-10
6.83312e-09
-1.23531e-09
-5.26333e-09
-9.79851e-09
-5.11747e-09
1.44005e-10
4.47439e-11
4.87742e-09
1.32185e-09
-1.72005e-08
-3.58922e-10
-7.70309e-10
-2.77116e-09
1.02299e-09
3.02332e-09
6.19412e-08
-8.59685e-11
-6.18552e-08
6.23643e-08
1.88715e-10
-6.25531e-08
-1.4133e-08
-2.11293e-10
1.4491e-08
-1.46677e-10
3.06325e-09
-1.82535e-09
2.54061e-09
1.80028e-09
-4.49168e-09
-3.29094e-10
-5.26024e-10
4.26831e-10
-1.00254e-10
4.38367e-10
-2.97133e-10
1.96549e-08
1.06844e-09
-1.5846e-08
-1.53755e-10
-1.93551e-09
1.24888e-08
2.26999e-09
1.79249e-09
5.34199e-09
-2.10537e-09
-7.72337e-08
-2.41776e-08
-4.92202e-09
1.58352e-08
2.42738e-09
-1.31285e-10
-3.00007e-09
-1.10092e-09
3.52131e-10
-3.10603e-10
-1.01249e-08
-3.55514e-10
1.04804e-08
-1.08436e-08
-6.59923e-09
1.07192e-08
-9.46123e-09
8.75778e-09
1.89649e-10
1.52341e-09
9.64438e-09
-9.55937e-09
-8.50169e-11
6.04168e-10
8.54796e-11
1.06592e-08
6.36913e-10
-8.0125e-10
-1.10016e-10
-1.42441e-08
-4.80519e-10
-1.37927e-08
1.26492e-08
-1.18597e-08
-6.60344e-08
6.4989e-08
1.04534e-09
2.54916e-10
-2.31498e-10
1.19895e-08
-2.31306e-10
9.27702e-12
-2.04983e-09
2.76523e-09
-3.42871e-09
-1.34754e-08
-1.62595e-09
2.57278e-09
-4.72512e-09
-1.40752e-08
1.59988e-09
5.56664e-09
9.65525e-09
-9.01641e-09
-2.55956e-10
2.46498e-11
-9.32283e-09
-1.33207e-08
1.50863e-10
-6.26966e-08
2.35457e-10
6.24612e-08
6.9515e-10
6.34318e-08
-2.24113e-10
-1.58465e-09
-1.44885e-08
1.07493e-10
-6.34008e-08
6.32933e-08
1.85451e-10
-6.29417e-08
6.27562e-08
3.5696e-10
6.18027e-08
1.50586e-10
-6.19532e-08
6.16337e-08
1.69003e-10
-8.7892e-08
8.85014e-08
-1.87128e-12
9.33959e-08
-9.31026e-08
-2.67605e-10
-8.66308e-08
-4.34465e-10
9.33548e-08
-1.83292e-10
-8.4917e-08
-7.68516e-10
9.34856e-08
1.73126e-10
-5.22641e-10
1.96103e-09
9.23617e-08
-6.93154e-08
6.21442e-08
-6.23272e-08
-6.29542e-08
6.14911e-08
1.42602e-10
-3.10477e-09
2.93876e-09
-1.41255e-08
5.04997e-11
9.35059e-11
1.39804e-09
8.74905e-09
-1.13846e-08
3.82972e-08
-3.45258e-08
-1.67485e-08
1.37951e-08
-4.22842e-11
-2.13487e-10
1.57831e-10
6.59722e-10
-1.28656e-10
3.22271e-10
4.47877e-09
1.03665e-09
-3.61585e-09
-1.83461e-10
2.24667e-10
-1.35408e-10
-2.56232e-09
1.31812e-08
2.41461e-09
-1.44353e-08
-2.62539e-09
-3.34516e-09
5.56517e-09
1.0455e-09
-2.65267e-09
1.42913e-08
-1.1594e-09
-2.01697e-09
2.2822e-09
-8.12476e-09
-1.90596e-08
-1.34642e-08
7.97548e-09
5.82812e-09
-2.27103e-10
-5.58358e-10
3.00376e-09
1.44767e-08
2.26748e-09
-1.83169e-09
-3.90824e-10
4.40843e-10
-2.42604e-10
1.59617e-08
-5.74765e-10
-1.57424e-08
-3.03638e-10
-4.48015e-10
3.23288e-10
-2.48641e-10
3.45959e-09
-1.64059e-08
4.6709e-10
-1.53451e-09
-2.12464e-09
-2.32261e-09
1.56322e-08
-9.05971e-08
-1.33904e-10
9.16823e-08
-1.9096e-10
-8.91674e-08
-4.77587e-10
9.31056e-08
-2.75453e-10
-9.29161e-08
-5.51841e-10
-1.61925e-09
1.67575e-08
9.19838e-08
-1.9883e-10
2.91348e-11
-2.21133e-10
9.86628e-09
2.52252e-09
-7.51743e-09
-1.21728e-08
-5.67815e-09
8.42492e-09
1.47528e-09
-6.81868e-09
-6.01279e-09
9.02902e-09
-7.93139e-11
1.01444e-08
1.94957e-08
-1.79717e-08
3.08125e-09
-1.26924e-08
3.08786e-09
-6.99761e-08
3.94175e-09
-2.0578e-08
-1.30812e-08
-4.89728e-10
-5.94806e-09
-1.52839e-08
9.08822e-09
-1.51545e-08
4.34083e-10
3.67112e-10
-1.87711e-09
-1.66012e-08
1.70374e-08
7.3348e-09
-7.78822e-09
-4.75992e-09
1.52792e-08
-1.68e-09
6.92018e-10
-9.75935e-10
1.53834e-10
1.19477e-08
3.32115e-09
7.09095e-08
-1.82405e-08
7.48486e-10
-1.49946e-08
-2.35712e-10
-2.75228e-10
-9.22989e-11
6.09532e-08
-6.12287e-08
-6.33716e-08
-6.31405e-08
-6.39777e-11
-2.62404e-10
-9.25897e-08
-6.04543e-08
6.24154e-08
6.50991e-08
-6.02812e-08
6.45765e-08
-6.04645e-08
6.3808e-08
-6.07321e-08
6.33735e-08
9.23126e-08
2.83201e-10
-6.36828e-09
7.51144e-08
-6.54249e-08
4.06915e-11
-4.06915e-11
3.45871e-10
-3.26538e-10
1.54841e-08
-2.78362e-11
2.78362e-11
3.38566e-10
1.53086e-09
1.38979e-08
1.33909e-08
-2.73173e-09
3.72504e-09
6.5572e-09
1.84372e-09
3.71849e-10
-2.53892e-10
-2.97867e-09
1.45818e-08
1.48464e-08
-4.28491e-09
1.18185e-08
1.85284e-10
1.48417e-10
2.75941e-09
-8.37206e-10
-1.55048e-09
-5.83891e-09
-2.0556e-10
-3.99603e-10
1.53065e-08
2.57502e-10
6.75486e-11
1.4562e-08
-2.61767e-08
1.77513e-08
2.64748e-09
1.27696e-09
2.49596e-09
-3.7239e-09
1.92965e-08
-1.80686e-08
-8.05468e-11
2.00483e-10
-1.44025e-09
-7.92099e-08
-7.07557e-08
1.32217e-09
-5.34774e-10
6.45003e-10
2.29833e-08
1.86012e-08
-6.35273e-09
7.65031e-11
-4.29433e-09
-2.51339e-09
2.99484e-08
1.5384e-10
1.48184e-08
7.3581e-08
5.14773e-11
5.1701e-10
-1.57553e-10
-2.16797e-10
-3.65768e-09
2.4255e-08
-1.48677e-08
9.87882e-10
-1.41711e-08
-5.28152e-11
2.03827e-08
-2.86851e-08
9.36054e-10
1.97856e-09
-3.02219e-10
)
;

boundaryField
{
    back
    {
        type            empty;
        value           nonuniform 0();
    }
    ingreso
    {
        type            calculated;
        value           nonuniform List<scalar> 
14
(
-1.54286e-08
-1.54288e-08
-1.54288e-08
-1.54288e-08
-1.54286e-08
-1.54283e-08
-1.54288e-08
-1.54288e-08
-1.54286e-08
-1.54286e-08
-1.54288e-08
-1.5428e-08
-1.5428e-08
-1.54286e-08
)
;
    }
    salida
    {
        type            calculated;
        value           nonuniform List<scalar> 2(1.01411e-07 1.14589e-07);
    }
    front
    {
        type            empty;
        value           nonuniform 0();
    }
    defaultFaces
    {
        type            calculated;
        value           uniform 0;
    }
}


// ************************************************************************* //
