/*--------------------------------*- C++ -*----------------------------------*\
  =========                 |
  \\      /  F ield         | OpenFOAM: The Open Source CFD Toolbox
   \\    /   O peration     | Website:  https://openfoam.org
    \\  /    A nd           | Version:  7
     \\/     M anipulation  |
\*---------------------------------------------------------------------------*/
FoamFile
{
    version     2.0;
    format      ascii;
    class       volScalarField;
    location    "70.5";
    object      p;
}
// * * * * * * * * * * * * * * * * * * * * * * * * * * * * * * * * * * * * * //

dimensions      [0 2 -2 0 0 0 0];

internalField   nonuniform List<scalar> 
591
(
0.000123885
0.000123902
0.000123907
0.000123859
0.000123862
0.000123932
0.000123926
0.000123895
0.000116986
0.000123912
0.000124091
0.000122828
0.000123901
0.00011973
0.000123895
0.000123942
0.000123875
0.000123938
0.000121952
0.000123274
0.000123876
-3.52608e-06
0.000124089
0.000123878
0.000124046
0.000123899
0.000124
0.000124007
0.000123912
0.00012392
0.000124066
0.000124041
0.000124061
0.00012406
0.000124062
0.000123386
0.000124057
0.000123878
0.000124084
0.000124003
0.000123965
0.000124053
0.000123907
0.000123928
0.00012405
0.00012407
0.000119242
0.000124074
0.000123911
0.00012403
0.000124019
0.000124052
2.39403e-05
3.05839e-05
4.78389e-05
0.000123905
0.000124078
0.000124067
0.000124072
0.000123885
0.000123972
0.000123902
0.000123901
0.00012395
0.000122569
0.000123903
0.000123906
0.000124069
0.000120722
0.000123916
0.000123911
0.000124076
0.000124045
0.000124055
0.000124061
0.000124037
0.00012388
0.000124073
0.000123882
0.000123817
0.000123659
0.000124077
0.000124037
0.000124016
0.000124085
0.000123892
0.000123983
0.000124067
0.00012403
0.000123782
0.000124042
0.000123988
0.000124004
0.000123885
0.000124083
0.000124038
0.000123589
0.000123489
0.000123647
0.000124088
0.000123997
0.000123913
0.000124093
0.000123858
0.000124093
0.000123904
0.000123901
0.000124042
0.000124084
0.000124088
0.000123975
0.000124064
0.000123918
0.000124069
0.000124086
0.000124067
0.00012402
0.000124016
0.000123579
0.000123988
0.000123904
0.000123898
0.000123981
0.000123884
0.000124056
0.000120199
0.000124092
0.000124069
0.000123657
0.000124062
0.000123894
0.000123582
0.000124028
0.000124024
0.000124065
0.000123909
0.000122625
0.000124091
0.000123897
0.000123577
0.000123642
0.000123991
0.000124073
0.000124084
0.000124078
7.61613e-06
3.67835e-06
2.07097e-06
3.81553e-05
3.66954e-05
5.66075e-06
3.83059e-05
1.57393e-05
3.72865e-05
1.78057e-05
0.000123903
0.000123894
0.00012408
0.000124074
0.000124081
0.00012408
0.000124073
0.000124069
0.000124079
0.000124079
0.000124042
0.000124082
0.000124077
0.000124084
0.000124021
0.000123393
0.000124084
0.000122121
0.000124064
0.000124064
0.000124012
0.000123913
0.000124064
0.000124078
0.000124076
0.000123491
0.000122471
0.000123048
0.000123444
0.000124068
0.000124075
0.000123988
0.000123875
0.00012407
0.000122966
0.000123301
0.000123876
0.000124063
0.000123758
0.000124057
0.000124073
0.000124046
0.000123728
0.000123866
0.00012407
0.000124077
0.000124075
0.000123872
0.000124058
0.000123868
0.000124086
0.000123898
0.000123896
0.000124082
0.00012369
0.000123867
0.000123907
0.000123543
0.000124034
0.000123689
0.000123977
0.000123988
0.000124062
0.000123457
0.000123966
0.000123859
0.000123861
0.000124038
0.000123797
0.000123952
0.000123866
0.000123777
0.000123853
0.000124087
0.000123842
0.000124083
0.000123931
0.00012406
0.000123908
0.000123909
0.000124089
0.000123802
0.000124076
0.000123792
0.000123839
0.000123902
0.000123882
0.000123918
0.000123904
0.000123674
0.000123878
0.00012383
0.000124046
0.000123897
0.000123747
0.000124033
0.000123299
0.000123855
0.000123193
0.000123075
0.000123888
0.000123854
0.000123891
0.000123888
0.000123855
0.000124087
0.000123933
0.000124017
0.000123944
0.000123938
0.000123951
0.000124039
0.00012369
0.000124083
0.000123727
0.000123617
0.000123921
0.000124059
0.000123639
0.000124079
0.000123986
0.000124012
0.000124036
0.000123912
0.000123882
0.000123713
0.000123848
0.000123876
0.000123928
0.000123983
0.00012405
0.000124067
0.000124073
0.000123832
0.000123937
0.00012406
0.000124067
0.000124062
0.000123856
0.000124074
0.000123948
0.000124056
0.000123819
0.000124075
0.000123807
0.000124052
0.000123942
0.000123883
1.16405e-05
2.19094e-05
0.000123835
0.000123909
0.000124085
0.000123838
0.000124086
0.000123919
0.000124075
0.000124052
0.000123791
0.000124047
0.000123877
0.000124082
0.000123911
-2.09742e-07
0.000123772
0.000124058
0.000124053
0.000123751
0.000123898
0.000123939
0.000124047
0.000123809
0.000124068
0.000123954
0.000123903
0.000124045
0.000123855
0.000123783
0.000123816
0.000123913
4.74693e-05
0.000124063
0.000124046
0.000123902
0.00012407
0.000123982
0.000123925
0.000123906
0.000123894
0.000124056
0.00012392
0.000123828
0.00012395
0.000123832
0.000124069
0.00012384
0.000123895
0.000123931
0.000124016
1.98705e-05
2.73296e-05
3.42903e-05
9.63784e-06
0.000123879
3.30493e-05
2.59978e-05
0.000124066
1.90715e-05
1.70275e-05
3.81807e-05
7.57469e-06
3.99327e-05
5.60345e-06
4.08273e-05
3.68767e-06
4.28103e-05
1.87497e-06
3.63988e-05
2.31947e-05
2.94457e-05
1.49902e-05
0.000123759
0.000124077
0.000123946
0.000123953
0.000120896
0.000123998
0.000124072
0.000124042
0.000123846
0.000124077
0.000124078
0.000124058
0.000124055
0.00012382
0.000123895
0.000124061
0.000124067
0.000123905
0.000123776
0.000123842
0.000123409
0.00012386
0.00012409
0.000124061
0.000123907
0.000124084
0.000123752
0.00012393
0.000123711
0.000122862
0.000124056
0.000124068
0.000124089
0.000123764
0.000123947
0.00012371
0.000123919
0.000123909
2.60393e-05
2.18743e-05
3.3031e-05
1.16165e-05
0.000124093
0.000123758
1.9817e-05
2.82507e-05
3.55974e-05
9.58647e-06
0.000123908
0.000124008
0.00012386
0.000123871
0.000123896
0.000124027
0.000123819
0.000124052
0.000123992
0.000123101
0.000123875
0.000123841
5.93513e-05
0.000123226
0.000124082
0.000123888
0.000123785
0.000124071
0.000124074
0.000123871
0.000123671
0.000123899
0.000123963
0.000123753
0.000124028
0.000122912
0.000123834
0.00012385
0.000124035
0.000100878
0.000123884
0.000123487
0.000123819
0.000124082
0.00012372
1.08943e-05
2.11118e-05
3.53622e-05
2.81867e-05
1.36601e-05
5.39397e-08
4.20748e-05
2.68889e-06
4.01536e-05
4.76083e-06
3.9412e-05
6.81342e-06
3.86189e-05
8.85591e-06
3.72848e-05
1.36721e-05
3.17229e-05
3.05792e-05
2.39341e-05
2.52736e-05
1.77627e-05
1.29364e-05
1.57054e-05
0.000124076
0.000102411
0.000123878
0.000123812
0.00012408
0.000123972
0.000124086
0.000123803
0.000123932
0.000124047
0.000124043
0.00012405
0.000123805
0.000123902
0.000123803
0.00012401
0.000123841
0.00012408
0.000123948
0.00012378
0.000123784
0.000123913
0.000123905
0.000124087
0.000124078
0.000124087
0.000124047
0.00012409
0.000123719
0.000123899
0.000124082
0.000123845
0.000123974
0.000123904
0.000123943
0.000123786
0.000124047
0.000124045
0.00012336
0.000121373
0.000123088
0.000123633
0.000123901
0.000123731
0.000123911
0.000124087
0.00012405
0.000123905
0.000123521
0.0001235
0.000124081
0.000124049
0.00012392
0.000124015
0.000123559
5.83142e-05
4.01142e-05
0.000124021
0.000124038
0.000123401
0.000122747
0.000123886
0.000123628
0.000123375
0.000123897
0.000123801
0.000124071
0.00012393
0.000123958
0.000119005
5.44736e-05
0.000123927
8.1232e-05
1.86125e-06
-3.81524e-07
0.000123896
0.000123865
0.000124048
0.000124089
0.000124078
0.000124081
0.000124081
0.000123882
-2.30777e-06
0.00012283
0.00012392
0.000124027
0.000122012
0.00012408
0.00012408
0.000122287
0.000123996
0.00012405
0.000121695
0.000124084
7.63433e-05
0.000124078
0.00012372
0.000124041
0.000122376
0.000123608
0.000123667
0.000123929
0.000124086
0.000124034
0.000124079
0.000124091
0.0001239
0.000116177
)
;

boundaryField
{
    back
    {
        type            empty;
    }
    ingreso
    {
        type            zeroGradient;
    }
    salida
    {
        type            fixedValue;
        value           uniform 0;
    }
    front
    {
        type            empty;
    }
    defaultFaces
    {
        type            zeroGradient;
    }
}


// ************************************************************************* //
