/*--------------------------------*- C++ -*----------------------------------*\
  =========                 |
  \\      /  F ield         | OpenFOAM: The Open Source CFD Toolbox
   \\    /   O peration     | Website:  https://openfoam.org
    \\  /    A nd           | Version:  7
     \\/     M anipulation  |
\*---------------------------------------------------------------------------*/
FoamFile
{
    version     2.0;
    format      ascii;
    class       volVectorField;
    location    "70.5";
    object      U;
}
// * * * * * * * * * * * * * * * * * * * * * * * * * * * * * * * * * * * * * //

dimensions      [0 1 -1 0 0 0 0];

internalField   nonuniform List<vector> 
591
(
(0.000829573 -2.35198e-05 1.21797e-18)
(0.000819282 -2.17271e-05 -6.64045e-19)
(0.000857269 -5.93981e-06 5.68549e-20)
(0.000859446 -1.13613e-05 -1.49119e-19)
(0.000843505 2.18442e-06 2.25592e-19)
(0.000802387 -4.0758e-05 -1.39631e-19)
(0.000561099 -0.000288665 8.06462e-19)
(0.00080328 4.26143e-06 2.08739e-18)
(0.0057343 0.00250216 9.87844e-19)
(0.000800433 -1.24567e-05 2.45487e-18)
(4.89886e-05 0.000168937 1.21834e-18)
(0.000931514 0.00137857 9.40798e-21)
(0.000799353 4.94553e-06 1.32533e-18)
(0.00160023 0.00239248 -7.87629e-19)
(0.000803366 2.45693e-06 -4.44263e-19)
(6.34293e-05 -0.000198775 2.38613e-22)
(0.00013703 0.000677004 7.04996e-19)
(0.000818646 6.66613e-05 -4.98786e-19)
(0.00192592 0.000393448 4.73825e-19)
(0.00135854 0.000253287 -2.4712e-19)
(0.000833363 -5.3152e-06 3.72979e-19)
(0.00340006 0.0065594 -8.15182e-20)
(2.71051e-05 6.95972e-05 2.70962e-19)
(0.000835277 -1.64003e-05 -4.51109e-19)
(1.08425e-05 -1.56297e-05 3.58951e-19)
(0.000774444 3.3564e-05 0)
(9.32599e-05 0.000473779 1.59973e-19)
(0.000546203 9.94136e-06 -1.78852e-19)
(0.000754614 4.75927e-05 1.14959e-18)
(0.000811229 5.18835e-05 5.9001e-19)
(5.68715e-05 -3.81541e-06 -4.50882e-24)
(3.17409e-05 -4.58272e-05 3.52199e-19)
(3.58985e-05 -3.04105e-06 -4.64254e-20)
(4.47827e-05 -1.19274e-05 0)
(5.39143e-05 -1.31534e-05 1.13153e-18)
(0.00117453 0.000132291 1.79937e-19)
(3.05779e-05 -5.27872e-06 4.47173e-20)
(0.000826448 4.51836e-06 3.07439e-23)
(2.69274e-05 4.32856e-05 2.66045e-19)
(1.23588e-05 -9.79759e-05 -8.54871e-19)
(0.000638714 -0.000203903 9.60091e-19)
(2.44883e-05 -6.594e-06 4.54853e-20)
(0.000802444 2.7058e-06 -1.58101e-18)
(0.000831002 4.28479e-05 -6.91198e-19)
(1.66368e-05 -7.72338e-06 0)
(5.44277e-05 6.69622e-06 8.51922e-20)
(0.00134613 0.00450186 8.93006e-19)
(7.54421e-05 1.56279e-05 8.63674e-20)
(0.000800627 1.65301e-05 0)
(0.00038339 -0.000208603 6.77574e-19)
(0.000382169 0.000272993 5.11939e-21)
(0.000394687 4.81595e-05 -1.00385e-18)
(0.0063481 0.0109416 -7.6845e-19)
(0.00622507 0.010797 1.5286e-20)
(0.0056145 0.0103798 1.45574e-18)
(0.000808813 2.98697e-05 0)
(6.66083e-05 3.05547e-05 0)
(0.000317618 1.28414e-05 1.5479e-23)
(6.24441e-05 1.0239e-05 -3.46479e-19)
(0.000814814 -8.07374e-06 0)
(0.00063855 2.88654e-05 3.17585e-19)
(0.000834568 1.06777e-05 2.20787e-18)
(0.000800754 3.02448e-05 -5.41073e-19)
(0.000799564 1.47575e-05 -3.15769e-19)
(0.0017118 0.000485565 5.42695e-19)
(0.000799347 1.56357e-05 -1.15359e-18)
(0.000828862 2.04612e-05 -5.24301e-19)
(7.9955e-05 -2.8337e-06 -1.73422e-19)
(0.00068896 0.00226235 0)
(0.000837124 3.8555e-05 0)
(0.000779093 1.69321e-05 -1.39248e-18)
(3.77381e-05 1.58321e-05 0)
(0.000288908 0.000270036 3.26861e-19)
(3.97504e-05 -1.71668e-05 0)
(4.10825e-05 -5.87648e-06 1.59482e-19)
(1.49304e-05 -4.38991e-05 -3.36692e-20)
(0.000791209 7.67241e-05 2.46929e-19)
(4.39043e-05 1.0527e-05 0)
(0.000801177 5.63297e-05 4.47435e-19)
(0.000772568 0.000293513 2.10739e-19)
(0.00096433 6.28075e-05 -3.97951e-20)
(4.26117e-05 2.27962e-05 -4.51889e-20)
(5.48996e-06 -2.21096e-05 0)
(0.000434038 0.000216262 1.70194e-19)
(2.84986e-06 2.2193e-05 0)
(0.000792642 3.79188e-05 -6.06952e-19)
(0.000610718 -0.000120393 0)
(6.42285e-05 -1.88661e-06 -1.7449e-19)
(3.10992e-06 -3.03278e-05 0)
(0.000828415 0.000241563 -3.41283e-19)
(3.61376e-06 -1.31199e-05 0)
(0.000423786 0.000323111 -1.30483e-23)
(0.000530706 0.000111686 0)
(0.000807091 4.46747e-05 -3.1631e-24)
(2.67347e-06 1.40128e-05 -4.21737e-20)
(0.000455413 -1.4078e-05 1.76365e-18)
(0.0010232 7.21965e-05 4.16054e-20)
(0.000829952 4.47146e-05 6.41211e-22)
(0.00073911 0.000657772 2.69513e-19)
(6.74644e-06 4.79576e-05 0)
(-1.19744e-07 -4.51147e-05 -3.12042e-19)
(-2.19737e-05 -7.90104e-05 -1.10087e-18)
(4.1865e-06 7.67302e-05 -5.96373e-19)
(0.000619718 -2.11948e-05 0)
(8.26316e-06 0.000101402 0)
(0.000811214 2.56232e-05 2.18228e-18)
(0.000788216 2.47445e-05 1.53437e-18)
(0.000426874 -8.25942e-05 0)
(4.22018e-05 0.000217619 -8.95432e-19)
(-1.79199e-07 0.000167639 4.96695e-19)
(6.14424e-05 0.000409598 6.25185e-19)
(0.000305754 8.15939e-05 -9.37176e-19)
(0.000802823 2.00887e-05 1.37343e-19)
(0.000261033 -4.36819e-05 5.31254e-19)
(4.20411e-06 3.18092e-05 0)
(2.16321e-05 0.000285266 -1.09397e-18)
(0.000320624 0.000323582 -1.61711e-19)
(1.20321e-06 -3.67701e-05 1.46518e-19)
(0.000670301 0.000813307 0)
(0.000368522 0.000387456 5.7444e-20)
(0.000816151 1.65638e-05 1.07031e-18)
(0.000799446 1.56138e-06 -2.72052e-18)
(5.87008e-06 -3.9292e-05 0)
(0.000673009 -3.36314e-05 -1.12323e-19)
(0.000320982 -0.000115663 1.24331e-18)
(0.00264429 0.000807264 -3.36299e-19)
(5.77019e-06 0.000131542 -6.13183e-19)
(5.03087e-06 0.000160606 1.61942e-18)
(0.000706505 2.25132e-05 -3.89934e-20)
(6.26074e-05 -1.3751e-05 -7.5021e-19)
(0.000806496 2.93541e-05 -3.87456e-19)
(0.000755234 2.62885e-05 -4.10447e-20)
(3.65678e-05 0.000331297 -5.96966e-19)
(0.000487221 6.53175e-05 -4.93959e-19)
(4.79509e-05 -3.42074e-06 1.56162e-19)
(0.000833573 2.93222e-05 -1.09533e-18)
(0.00155829 0.000237823 -1.13714e-18)
(4.31816e-06 6.17229e-05 4.9644e-19)
(0.000809787 2.86715e-05 -4.9476e-19)
(0.000912168 0.000543713 -7.85144e-20)
(0.000145782 0.000790126 0)
(0.000582917 6.46904e-05 0)
(0.000275654 5.26938e-05 -1.60976e-18)
(6.27438e-05 5.78238e-05 -1.37417e-18)
(3.03611e-05 2.02176e-05 0)
(0.004247 0.00740001 -1.01961e-20)
(0.00422541 0.00737196 3.16476e-20)
(0.00442763 0.00757475 -4.9648e-21)
(0.00420667 0.00773504 0)
(0.00419906 0.00760087 5.77157e-19)
(0.00424419 0.00740138 -9.19959e-20)
(0.00421038 0.00804272 4.84389e-19)
(0.00428931 0.00742188 0)
(0.0042086 0.00853592 6.16681e-19)
(0.00432572 0.00745028 2.23893e-19)
(0.000824311 7.64122e-06 -1.37389e-18)
(0.000770089 5.39105e-05 0)
(0.000213413 5.15563e-05 1.27702e-19)
(4.96734e-05 1.54075e-05 8.71896e-20)
(7.71767e-05 4.39607e-05 6.80058e-19)
(0.000104807 4.01511e-05 -3.41688e-19)
(9.89181e-05 4.46643e-06 0)
(4.74235e-05 4.62609e-06 8.18422e-20)
(0.000206251 0.000131524 0)
(0.000164891 4.07177e-05 -5.24321e-20)
(0.000343595 0.000221779 -5.0928e-21)
(5.52393e-05 4.22408e-05 -4.37679e-19)
(8.96532e-05 2.63356e-05 -8.52521e-20)
(8.96089e-05 6.08526e-05 1.31202e-21)
(0.000255977 0.000365709 -6.66204e-19)
(0.00010722 0.00100144 0)
(4.15425e-05 5.19212e-05 3.43081e-19)
(0.000199828 0.00175091 0)
(0.00020775 0.000252757 7.04695e-19)
(3.70661e-05 -3.68742e-06 1.11501e-19)
(0.000483904 0.000163717 -1.72311e-19)
(0.000761741 2.40457e-05 -1.92424e-18)
(4.20084e-05 -1.31132e-06 4.50052e-24)
(0.000147188 2.31942e-05 2.24602e-19)
(0.000244197 9.11212e-05 -8.99379e-20)
(0.00088133 0.000704017 3.34957e-19)
(0.000721612 0.00163437 -9.23608e-21)
(0.000396687 0.00142325 -9.39531e-21)
(0.00102459 0.000547536 0)
(0.000100877 -1.61916e-05 1.11877e-18)
(0.000114566 1.43899e-05 -4.43172e-20)
(0.000456431 -0.000287001 -1.13614e-18)
(0.000814982 3.93689e-05 0)
(0.000180936 -1.67087e-08 3.63322e-19)
(0.000300534 0.0013103 0)
(0.00107954 0.000774144 -7.30233e-20)
(0.000826643 3.32096e-05 -1.86571e-19)
(7.57677e-05 -2.15408e-05 -2.99998e-19)
(0.000829439 0.0003191 -2.0806e-20)
(5.53115e-05 -2.13933e-05 -5.99534e-19)
(0.000226405 0.00017449 8.63922e-20)
(0.000229848 0.000308638 -3.45028e-19)
(0.000886432 0.000248221 0)
(0.000815975 5.19343e-05 0)
(0.000263551 0.000135013 1.76857e-19)
(0.000233817 -2.39919e-07 3.66668e-24)
(0.000184465 0.000205137 0)
(0.000295829 0.000652786 -5.55726e-21)
(0.000348725 -7.43979e-06 0)
(0.000372744 0.000599774 0)
(0.000108106 8.11748e-05 -1.34678e-21)
(0.000809985 2.8604e-05 -9.39376e-19)
(0.000807691 1.98714e-05 7.97844e-19)
(0.000128004 5.61691e-05 -1.49865e-19)
(0.000959417 0.000149612 8.50569e-20)
(0.000837181 4.26728e-05 3.33135e-19)
(0.000817152 2.76854e-05 -2.94136e-19)
(0.00102061 0.000414468 0)
(0.000439162 0.000118525 6.24472e-19)
(0.000899497 0.000320714 2.09151e-20)
(0.000578317 0.000155662 0)
(0.00027196 0.000446955 4.0966e-19)
(0.000261655 0.000216189 -8.4422e-20)
(0.00109588 0.000378521 -7.8218e-19)
(0.000624987 0.000104476 -1.79303e-19)
(0.000810498 7.30828e-05 -7.45507e-21)
(0.000840927 2.88241e-05 9.39839e-20)
(7.50536e-05 -8.73091e-05 -1.9815e-18)
(0.000739275 0.000381476 2.19246e-19)
(0.000669645 6.38243e-05 2.30644e-20)
(0.000707529 0.000279355 1.60242e-23)
(0.000730438 0.00045992 -4.09703e-19)
(0.000846248 2.83279e-05 9.0676e-20)
(7.13644e-05 7.88733e-05 0)
(0.0006567 0.000420045 -4.65943e-20)
(0.000183382 9.4045e-05 0)
(0.000374509 0.000501734 -2.6485e-19)
(0.000310003 0.000166752 0)
(0.000675472 0.000204531 3.55248e-19)
(0.000650206 0.000259942 -4.37277e-20)
(8.11622e-05 0.000103227 6.19192e-19)
(0.000876311 9.34228e-05 -1.62414e-18)
(5.70038e-05 2.14693e-05 2.57206e-19)
(0.000887101 6.90118e-05 -1.68541e-18)
(0.000840717 8.87048e-05 1.63015e-19)
(0.000810006 3.28641e-05 1.892e-18)
(0.000815985 3.30879e-05 -1.3286e-19)
(0.000736962 7.23447e-05 0)
(0.000806028 2.51093e-05 8.95667e-19)
(0.000960175 0.000230784 -4.27128e-19)
(0.000773933 9.41104e-05 -4.83748e-19)
(0.000778809 0.000231988 -8.81277e-20)
(0.000211786 -0.000166896 -2.07868e-18)
(0.000747687 8.03773e-05 8.87559e-19)
(0.000640494 0.000595689 0)
(8.72106e-05 -0.000117091 0)
(0.00122124 0.000472064 4.97283e-19)
(0.000620855 -6.12683e-05 -3.26221e-18)
(0.00134415 0.000417026 5.76467e-19)
(0.00124178 0.000717726 -6.3879e-20)
(0.0008119 3.0665e-05 -2.11648e-19)
(0.000835919 6.71608e-05 -1.4254e-18)
(0.00081465 2.60041e-05 1.5823e-18)
(0.000817033 2.72518e-05 9.78292e-20)
(0.00066994 0.000352306 -4.40426e-20)
(0.00010134 0.000122274 5.82941e-24)
(0.000751616 -3.94155e-05 2.65099e-19)
(0.000216613 -0.000260866 -7.32505e-19)
(0.000624166 0.000186092 0)
(0.000709727 4.55008e-05 9.90461e-20)
(0.000695361 9.9425e-06 -3.80834e-19)
(0.000389538 0.000170293 3.93382e-20)
(0.000806717 0.000506191 -1.65483e-19)
(0.00014844 7.44005e-05 3.19378e-25)
(0.000811863 0.000411683 0)
(0.000979903 0.000318194 4.15796e-20)
(0.000756927 -7.49417e-05 -6.16256e-19)
(0.000348504 0.000104559 4.97831e-19)
(0.000903842 0.000425731 0)
(4.87173e-05 3.07917e-05 1.33718e-19)
(0.000484159 0.000267244 2.1396e-19)
(0.000509992 -0.000151661 -7.09548e-19)
(0.000129115 -0.000162269 -1.05684e-18)
(0.000824114 3.27508e-05 -4.86851e-19)
(0.000775181 -8.60186e-05 -1.943e-19)
(0.000548333 0.000729242 -1.17443e-18)
(0.000847408 4.70093e-05 -6.74317e-20)
(0.000625804 -2.21094e-05 1.27646e-18)
(0.000703658 9.95436e-05 2.27794e-20)
(0.000532069 0.000209273 -1.65692e-19)
(3.0667e-05 -2.15036e-05 -8.75885e-20)
(0.000166584 -4.52847e-05 2.4062e-18)
(1.78598e-05 7.13663e-07 -1.9485e-19)
(0.000828093 0.000113246 3.63766e-19)
(0.000663961 0.000136274 0)
(0.000185281 -8.77336e-05 -1.04818e-18)
(0.000120456 -1.88564e-05 3.12929e-19)
(0.00010747 -3.64769e-05 1.26847e-23)
(0.000798426 0.000106282 -3.19279e-19)
(0.0001524 -1.34732e-05 0)
(0.000585179 0.000241714 0)
(0.000111265 0.000329335 -3.62866e-19)
(0.000860732 0.000100447 2.09741e-18)
(1.45555e-05 1.07897e-06 0)
(0.000878909 5.30226e-05 0)
(4.29122e-05 -2.58972e-05 0)
(0.000815431 4.57951e-05 -4.46847e-21)
(0.00078964 -4.45564e-05 0)
(0.00425983 0.00740629 8.06952e-20)
(0.00436146 0.00748603 1.4362e-19)
(0.000843935 -6.33906e-06 0)
(0.000786734 -4.72281e-05 8.09933e-19)
(0.000152612 0.000124094 1.49215e-19)
(0.000852971 6.8428e-05 8.07674e-19)
(0.000129647 0.000100932 2.34406e-20)
(0.000779825 -2.84495e-05 6.24465e-19)
(3.45174e-05 9.52619e-06 0)
(2.79452e-05 -1.34549e-05 -4.48502e-20)
(0.000896754 4.91961e-05 -4.86586e-19)
(3.26786e-05 -3.18301e-05 -6.69836e-19)
(0.000756598 0.000121704 -4.23262e-20)
(0.000168408 0.000161883 -1.88107e-19)
(0.000814513 2.78146e-05 0)
(0.00468251 0.00815353 9.00429e-22)
(0.000180481 0.000787937 3.33517e-19)
(0.000115783 -5.91308e-05 -9.14573e-19)
(6.02023e-05 -3.51152e-05 -1.16881e-18)
(0.000641765 1.39661e-05 1.89859e-20)
(0.000581028 0.000408154 0)
(0.000418624 0.000442801 -2.56342e-19)
(8.30205e-05 -6.03084e-05 1.18375e-18)
(0.000599909 4.37575e-07 7.70278e-20)
(4.16531e-05 1.81926e-06 4.07115e-19)
(0.000700604 -5.20901e-05 1.1717e-18)
(0.000810735 3.2492e-05 -5.95932e-19)
(6.42898e-05 -5.51808e-05 1.70937e-18)
(0.00084248 -2.46173e-05 -5.66251e-24)
(0.000618293 6.87798e-06 -3.76518e-20)
(0.000867226 6.93492e-05 0)
(0.000838895 3.9601e-05 0)
(0.00591725 0.00723998 2.59587e-19)
(1.86139e-05 -2.24641e-06 -1.19587e-19)
(0.000124948 -0.000102138 7.73018e-19)
(0.000724463 0.000118171 -6.96476e-19)
(2.16581e-05 -3.67791e-08 2.01522e-19)
(0.000621431 -3.51723e-05 -7.23855e-19)
(0.000742891 3.70563e-05 1.55814e-18)
(0.00070403 0.00015942 -3.55455e-19)
(0.000807696 -1.27204e-05 3.60646e-19)
(7.57076e-05 -3.41033e-05 1.11606e-18)
(0.000799734 7.03305e-06 -3.22709e-19)
(0.000866291 4.17242e-05 0)
(0.000540975 0.000303245 4.21036e-20)
(0.000856702 5.07999e-05 -9.46421e-19)
(1.91791e-05 2.37918e-06 9.11295e-19)
(0.000852741 4.63324e-05 9.6557e-19)
(0.000856676 8.77466e-06 -9.60229e-19)
(0.000749329 -1.92662e-06 -5.6921e-19)
(0.000520808 -7.21814e-05 -5.25675e-19)
(0.00432862 0.00745241 2.47527e-19)
(0.0042229 0.00752961 -2.78814e-19)
(0.00422145 0.00758748 2.66609e-19)
(0.00425574 0.00741051 1.97953e-19)
(0.000844925 -2.71672e-05 1.44052e-19)
(0.00447533 0.00751193 0)
(0.00440275 0.00751647 -3.86936e-19)
(2.96369e-05 -1.31978e-07 -9.98126e-19)
(0.00417055 0.00746941 -6.33603e-20)
(0.00414587 0.00743244 -2.2149e-19)
(0.00602983 0.0106065 0)
(0.00654051 0.0111876 3.71376e-20)
(0.00600978 0.0105762 0)
(0.00655621 0.0112111 1.30846e-19)
(0.00599715 0.0106002 2.69657e-19)
(0.00659288 0.011228 1.2457e-20)
(0.0059358 0.0106129 -7.76669e-19)
(0.00662312 0.0111469 8.1475e-21)
(0.00390377 0.00920006 -1.90845e-19)
(0.00418685 0.00748874 3.87444e-21)
(0.00423794 0.00755256 7.93519e-20)
(0.00415033 0.00743471 4.11994e-20)
(0.000877947 0.00019166 4.46767e-20)
(1.03165e-05 1.46981e-06 0)
(0.000701884 -0.000122037 0)
(0.000665352 5.049e-05 0)
(0.00244415 0.00110916 4.24028e-21)
(0.000754515 -3.16239e-05 1.72593e-19)
(4.01642e-05 5.69212e-06 4.5408e-20)
(1.03617e-05 -2.72119e-05 1.6533e-18)
(0.00085051 1.44748e-05 0)
(2.76849e-05 1.25619e-05 -1.91738e-19)
(0.000140248 0.000223156 0)
(1.79818e-05 -1.02432e-06 0)
(1.45894e-05 -1.35154e-06 0)
(0.000822388 0.000138976 1.13736e-20)
(0.000810506 -1.71288e-05 1.79366e-19)
(3.6463e-05 0.000274253 -1.69791e-23)
(0.000157842 0.000272884 -1.84202e-18)
(0.000602344 0.000329462 -8.57043e-20)
(0.000896487 0.00011028 6.00508e-19)
(0.000659019 -0.00021949 6.73137e-19)
(0.000363407 0.00110936 0)
(0.000470985 0.000575008 2.71538e-18)
(9.04486e-05 0.000145928 -1.80318e-18)
(2.23738e-05 5.92506e-08 0)
(0.00082109 -5.73341e-05 3.63279e-20)
(1.64052e-05 3.61911e-05 1.64459e-18)
(0.000899295 3.19625e-05 2.71207e-19)
(-1.53216e-05 4.02917e-06 3.80628e-18)
(0.000929795 3.97976e-05 -2.69067e-19)
(0.00135199 0.000151347 7.47255e-19)
(3.52843e-05 -1.07249e-05 8.25761e-20)
(3.67214e-05 3.84498e-06 -8.59125e-19)
(5.06566e-05 0.000142756 0)
(0.000908988 7.98148e-05 5.9859e-19)
(0.000493513 0.000368137 2.37156e-19)
(0.000665917 1.78813e-05 -3.89173e-20)
(0.000777191 -4.30345e-06 2.57255e-19)
(0.000736041 -0.000181962 0)
(0.00632085 0.010897 -1.68117e-19)
(0.0063792 0.0109742 4.05809e-19)
(0.00616063 0.0107315 -6.18357e-19)
(0.00650158 0.011133 -8.09786e-20)
(3.4591e-05 0.000119052 8.00584e-19)
(0.000918915 5.97315e-05 1.45982e-22)
(0.00641177 0.0110067 -3.86436e-19)
(0.00628189 0.0108469 5.48258e-19)
(0.00608069 0.0106733 -4.1675e-19)
(0.00652206 0.0111653 -6.81394e-20)
(8.04925e-05 0.000507792 -2.01826e-20)
(8.46481e-05 -0.000202945 -7.93456e-19)
(0.00067502 -2.06731e-05 -7.64362e-19)
(0.000723516 0.000220393 0)
(0.000799998 5.47019e-07 0)
(0.000185908 0.000390829 3.36316e-19)
(0.000597553 0.000515992 -5.41902e-19)
(1.00658e-05 -1.69913e-06 1.78409e-19)
(0.000201472 0.000467031 -7.38433e-19)
(0.0010084 0.000971598 -1.12685e-19)
(0.000742467 0.000166086 0)
(0.000787257 0.000183231 1.31031e-19)
(0.00635445 0.00587892 1.13135e-18)
(0.000740194 0.00112722 8.26596e-20)
(3.89524e-05 3.83298e-05 -7.44743e-20)
(0.000810846 1.47636e-05 0)
(0.000874805 2.60841e-05 -3.56939e-20)
(3.49759e-05 3.35476e-06 -1.96722e-19)
(3.02462e-05 4.76934e-06 1.93006e-19)
(0.000832664 1.93677e-05 5.37269e-19)
(0.000971256 0.000108974 6.58345e-19)
(0.000570831 3.84916e-05 0)
(0.000222475 -0.000300999 -3.98071e-19)
(0.00091445 0.000147792 3.89633e-19)
(1.36587e-05 -6.21405e-05 2.03133e-19)
(0.00144928 0.000442922 -2.5815e-18)
(0.000600441 -7.30695e-06 0)
(0.000790586 0.0001442 3.75502e-19)
(9.42281e-05 0.000395979 0)
(0.00118763 0.00816215 4.62179e-19)
(0.000488863 0.000500187 -1.22462e-18)
(0.000541921 0.0010069 -1.83764e-19)
(0.000880214 1.85286e-05 -1.46065e-19)
(1.33872e-05 2.56176e-05 0)
(0.000944675 7.71351e-05 6.11764e-19)
(0.00410629 0.00739542 8.14238e-20)
(0.00417142 0.00747396 4.73083e-20)
(0.00449904 0.00751458 4.54008e-19)
(0.00444426 0.00754092 -3.28845e-19)
(0.00647553 0.01111 8.10562e-20)
(0.00391484 0.00714597 -9.66643e-22)
(0.00550744 0.00779655 -5.64703e-19)
(0.00409786 0.00737159 5.21871e-21)
(0.00518798 0.00785644 5.11627e-19)
(0.00407965 0.00734004 -4.87146e-20)
(0.00495298 0.00771578 0)
(0.00408494 0.00736444 -8.56508e-20)
(0.00474164 0.00758708 4.92463e-19)
(0.0040982 0.00737607 8.75105e-20)
(0.00457422 0.00752668 0)
(0.00428337 0.00742047 1.39746e-19)
(0.00423961 0.00759902 5.79929e-19)
(0.00446673 0.00752628 -5.53887e-19)
(0.00438705 0.00750399 3.7132e-19)
(0.00422803 0.00752553 3.22827e-19)
(0.00643093 0.0110434 -4.97501e-21)
(0.00411774 0.00740156 3.11586e-20)
(0.006459 0.0110732 0)
(2.44326e-05 6.0182e-06 -1.89875e-19)
(0.0019998 0.00654347 2.28288e-19)
(0.000839425 -4.66102e-05 1.0967e-19)
(0.000856724 9.58276e-06 0)
(1.68409e-06 1.46079e-06 -3.99144e-19)
(-3.14145e-06 -0.000137195 6.91997e-19)
(2.44376e-05 5.72935e-05 2.08915e-18)
(0.0008265 0.000179974 -9.0081e-20)
(0.000799956 9.43981e-06 7.06457e-19)
(1.53498e-06 -1.3082e-06 3.10015e-19)
(1.91803e-05 -3.45788e-05 -1.84582e-18)
(0.000762119 2.7547e-05 1.63166e-19)
(0.000866988 0.000124064 -3.08017e-20)
(0.000800294 -8.99484e-06 1.4815e-19)
(0.000412715 0.00067958 0)
(4.77735e-05 -0.000147468 1.15158e-18)
(0.000862685 8.74256e-06 1.52529e-19)
(2.01709e-05 2.41418e-05 0)
(0.000114568 0.000561092 -6.31273e-19)
(0.000607277 0.000594763 1.31802e-18)
(0.000326351 0.00075004 0)
(0.000800988 -1.70076e-05 0)
(0.000800674 3.01955e-06 1.17476e-18)
(1.7897e-05 4.95777e-05 -3.51522e-18)
(1.69658e-05 7.3944e-06 3.73652e-19)
(0.00011611 0.000145868 0)
(4.60947e-05 -4.1247e-05 0)
(6.22946e-05 0.00011313 2.01014e-19)
(0.000934895 0.000187185 3.50464e-19)
(0.000799906 1.58497e-05 -1.39682e-18)
(2.30743e-05 3.35605e-05 0)
(0.000463278 1.09098e-05 -6.04025e-20)
(0.000801239 3.8923e-05 -1.56358e-19)
(0.000840645 3.53337e-05 1.06377e-18)
(0.000257989 0.000542381 6.3227e-19)
(0.000873715 0.000156239 0)
(1.95164e-05 -2.41726e-05 5.38711e-19)
(2.65628e-06 -6.18689e-06 -3.19993e-19)
(0.000982194 3.11429e-05 0)
(0.00103396 0.0022637 0)
(0.000941514 -6.3519e-06 0)
(0.00100067 0.000206638 4.27219e-19)
(0.000817024 -3.34607e-05 -2.83885e-19)
(0.000928904 0.000109518 -6.84838e-19)
(0.000800444 3.34204e-06 0)
(4.21527e-05 6.94438e-05 -1.71579e-19)
(0.000174262 0.00032743 1.08121e-18)
(0.000798748 1.60508e-05 -1.73394e-23)
(0.00108889 0.000209148 -6.69016e-19)
(0.0010903 0.000125131 0)
(2.60277e-06 6.56601e-06 2.5105e-19)
(1.88959e-05 -1.56784e-05 -1.9433e-19)
(0.000578354 3.91167e-05 6.95072e-21)
(1.18492e-05 -8.17658e-05 0)
(0.00105942 0.000253884 9.50127e-19)
(0.00502883 0.00974922 -2.83023e-19)
(0.00312119 0.0096189 1.27246e-18)
(4.38122e-05 -0.000106757 -1.91357e-19)
(5.6779e-05 -7.58294e-05 1.85968e-18)
(0.0011915 0.000244954 1.67333e-19)
(0.0013276 0.00108021 2.34102e-19)
(0.000811816 3.115e-07 -7.32549e-19)
(0.000198705 0.000951911 -2.38295e-19)
(0.000813476 0.000932754 -2.18598e-19)
(0.000799956 -2.86468e-06 0)
(8.51023e-05 0.000627271 0)
(9.56536e-05 0.000282815 -4.00337e-23)
(0.000719602 -4.18586e-05 -1.67933e-23)
(0.000822142 6.45677e-05 1.52627e-19)
(0.00263074 0.00206284 -1.23133e-18)
(0.00175947 0.00923893 -1.17204e-19)
(0.000834355 5.24044e-05 4.92268e-19)
(0.00632782 0.00404713 -1.75938e-19)
(0.00672108 0.0115578 -1.36449e-20)
(0.00473415 0.0078438 4.92848e-21)
(0.000801871 1.36382e-05 -2.19354e-18)
(0.000836301 9.34635e-06 4.90112e-24)
(9.1623e-06 -7.82841e-06 -3.48049e-19)
(4.65877e-05 9.04867e-05 -3.49308e-19)
(6.70816e-05 0.00027121 8.75326e-19)
(1.12948e-05 1.64282e-05 4.9045e-19)
(8.9667e-05 0.000231168 3.69793e-19)
(0.000822388 2.43839e-05 0)
(0.00534811 0.00949245 1.95057e-20)
(0.00153246 0.000634344 -2.61187e-20)
(0.000819911 3.4571e-05 3.60212e-19)
(3.58413e-05 -8.32273e-05 0)
(0.00184791 0.000741647 5.46038e-19)
(9.71165e-06 7.7742e-06 -2.70178e-19)
(3.4235e-05 2.88112e-05 9.71909e-20)
(0.0013266 0.00139564 6.36614e-19)
(0.000736221 4.77496e-05 1.83121e-19)
(5.33095e-06 -1.73452e-06 -1.70219e-19)
(0.00206257 0.00155796 -1.05596e-18)
(0.000126505 0.000179694 -8.18814e-19)
(0.00392151 0.00848742 -1.09094e-18)
(5.75993e-06 1.6506e-06 8.81506e-20)
(0.000136739 -0.000124308 -1.25647e-18)
(4.95838e-05 -5.78117e-05 4.05684e-20)
(0.0015261 0.000980738 0)
(0.00103879 0.000138677 -4.06146e-22)
(0.000454064 0.00084934 -4.02083e-20)
(0.000802755 2.72596e-05 -2.34102e-19)
(8.71309e-05 0.000185883 7.36124e-19)
(3.28331e-05 -6.2396e-05 4.04051e-19)
(1.8651e-05 1.54873e-05 -9.47188e-20)
(3.19764e-05 9.33249e-05 -3.20317e-19)
(0.00020557 -0.000260952 -5.45089e-19)
(0.00325114 0.00345888 2.84987e-21)
)
;

boundaryField
{
    back
    {
        type            empty;
    }
    ingreso
    {
        type            fixedValue;
        value           uniform (0.0008 0 0);
    }
    salida
    {
        type            zeroGradient;
    }
    front
    {
        type            empty;
    }
    defaultFaces
    {
        type            noSlip;
    }
}


// ************************************************************************* //
