/*--------------------------------*- C++ -*----------------------------------*\
  =========                 |
  \\      /  F ield         | OpenFOAM: The Open Source CFD Toolbox
   \\    /   O peration     | Website:  https://openfoam.org
    \\  /    A nd           | Version:  7
     \\/     M anipulation  |
\*---------------------------------------------------------------------------*/
FoamFile
{
    version     2.0;
    format      ascii;
    class       volVectorField;
    location    "92";
    object      U;
}
// * * * * * * * * * * * * * * * * * * * * * * * * * * * * * * * * * * * * * //

dimensions      [0 1 -1 0 0 0 0];

internalField   nonuniform List<vector> 
591
(
(0.000835453 -1.02632e-05 1.21658e-18)
(0.000829991 -9.92045e-06 -6.62337e-19)
(0.000855279 1.24048e-05 5.70502e-20)
(0.000865997 -2.18555e-05 -1.49026e-19)
(0.000852903 -7.34557e-06 2.25456e-19)
(0.000803432 -3.91012e-05 -1.39571e-19)
(0.000565328 -0.000240333 8.05923e-19)
(0.000803874 4.45022e-06 2.1032e-18)
(0.00572652 0.00250911 9.87865e-19)
(0.000811665 -4.65387e-06 2.44758e-18)
(4.65749e-05 0.000162757 1.21787e-18)
(0.000937751 0.00139079 9.40672e-21)
(0.000800984 4.17275e-06 1.32269e-18)
(0.00160189 0.00240271 -7.87327e-19)
(0.000803337 1.55605e-06 -4.45994e-19)
(4.85628e-05 -0.000165254 2.10061e-22)
(0.000140051 0.000672001 7.04765e-19)
(0.000817723 7.7629e-05 -4.96879e-19)
(0.00190298 0.000392496 4.73759e-19)
(0.00135997 0.000255026 -2.47044e-19)
(0.000832124 -8.53001e-06 3.73086e-19)
(0.00340032 0.00655964 -8.14951e-20)
(2.40516e-05 6.52879e-05 2.70858e-19)
(0.000836171 -2.38065e-05 -4.51448e-19)
(7.3337e-06 -1.22639e-05 3.58797e-19)
(0.000787859 4.05405e-05 0)
(9.43335e-05 0.000468733 1.59923e-19)
(0.000566755 8.38356e-07 -1.78775e-19)
(0.000762329 4.67733e-05 1.14908e-18)
(0.000807412 6.72172e-05 5.84858e-19)
(5.10007e-05 -5.17852e-06 -4.71491e-24)
(2.41283e-05 -4.06565e-05 3.52054e-19)
(3.00662e-05 -2.65258e-06 -4.64063e-20)
(3.93626e-05 -1.22197e-05 0)
(4.80929e-05 -1.29002e-05 1.13107e-18)
(0.00117184 0.000138325 1.79845e-19)
(2.53428e-05 -4.43285e-06 4.4699e-20)
(0.000824657 6.6836e-07 3.16147e-23)
(2.39545e-05 3.9521e-05 2.65939e-19)
(-3.29126e-06 -6.99351e-05 -8.53463e-19)
(0.000656263 -0.000195729 9.58802e-19)
(1.97832e-05 -5.31613e-06 4.54668e-20)
(0.000811179 1.40939e-05 -1.58033e-18)
(0.000832238 4.90284e-05 -6.9091e-19)
(1.29206e-05 -6.04132e-06 0)
(4.95764e-05 4.50387e-06 8.51579e-20)
(0.00134828 0.00450308 8.92775e-19)
(6.97183e-05 1.15872e-05 8.63332e-20)
(0.000802162 1.6377e-05 0)
(0.000391975 -0.000227479 6.77033e-19)
(0.000388303 0.00026787 5.11756e-21)
(0.000401847 3.60173e-05 -1.00344e-18)
(0.00634784 0.0109406 -7.68461e-19)
(0.00622448 0.0107956 1.52768e-20)
(0.00561431 0.0103784 1.45563e-18)
(0.000806334 4.36224e-05 0)
(6.23104e-05 2.64583e-05 0)
(0.000319366 -2.09072e-06 2.27765e-23)
(5.7306e-05 7.43666e-06 -3.4634e-19)
(0.000812714 -7.22043e-06 0)
(0.000657125 2.86018e-05 3.17447e-19)
(0.000843383 2.33833e-05 2.20724e-18)
(0.000809258 3.74083e-05 -5.38184e-19)
(0.000800066 1.20976e-05 -3.15645e-19)
(0.00171325 0.000488117 5.42543e-19)
(0.000808276 2.8741e-05 -1.14868e-18)
(0.000836516 3.26564e-05 -5.23975e-19)
(7.24094e-05 -6.30195e-06 -1.73352e-19)
(0.000689569 0.0022596 0)
(0.000844098 4.72833e-05 0)
(0.000789367 2.38591e-05 -1.39257e-18)
(3.4452e-05 1.37933e-05 0)
(0.000292302 0.00026475 3.26747e-19)
(3.38931e-05 -1.57235e-05 0)
(3.58096e-05 -5.57427e-06 1.59418e-19)
(7.82529e-06 -3.66426e-05 -3.36551e-20)
(0.000800659 7.87227e-05 2.46866e-19)
(3.99946e-05 8.72698e-06 0)
(0.00080984 5.5422e-05 4.4738e-19)
(0.000780208 0.000294769 2.10657e-19)
(0.000961683 6.69365e-05 -3.97721e-20)
(3.91801e-05 2.00728e-05 -4.51708e-20)
(3.96157e-06 -1.38146e-05 0)
(0.000441093 0.000211911 1.70131e-19)
(2.72984e-06 1.75363e-05 0)
(0.000804214 4.53622e-05 -6.07191e-19)
(0.000638883 -0.000116888 0)
(5.81634e-05 -4.1482e-06 -1.7442e-19)
(1.39572e-06 -1.91727e-05 0)
(0.000834877 0.000241327 -3.4114e-19)
(2.37646e-06 -7.84924e-06 0)
(0.000430538 0.000320395 -1.33986e-23)
(0.000541798 0.00010853 0)
(0.000814636 4.36836e-05 -3.0498e-24)
(2.28269e-06 1.05956e-05 -4.21568e-20)
(0.000469134 -2.52147e-05 1.7629e-18)
(0.00101962 7.296e-05 4.15865e-20)
(0.000793062 4.6687e-05 6.41388e-22)
(0.000746038 0.000659199 2.69415e-19)
(6.9017e-06 4.07348e-05 0)
(-5.11758e-06 -2.34241e-05 -3.12118e-19)
(-3.62214e-05 -3.19559e-05 -1.10175e-18)
(4.89333e-06 6.69744e-05 -5.96167e-19)
(0.000597551 -2.74373e-05 0)
(9.01628e-06 9.05671e-05 0)
(0.000819318 3.28359e-05 2.18161e-18)
(0.000798272 3.41106e-05 1.53375e-18)
(0.000445657 -0.000106601 0)
(3.95077e-05 0.000209595 -8.9507e-19)
(9.24594e-07 0.000154204 4.96703e-19)
(5.70048e-05 0.000393753 6.25074e-19)
(0.000310319 6.89661e-05 -9.36872e-19)
(0.000801992 2.00236e-05 1.3737e-19)
(0.000257892 -6.54206e-05 5.31039e-19)
(4.22242e-06 2.59937e-05 0)
(1.90665e-05 0.000272068 -1.09379e-18)
(0.000325067 0.000319452 -1.61655e-19)
(-1.51896e-06 -1.82604e-05 1.46514e-19)
(0.000669872 0.000807856 0)
(0.000373386 0.000382335 5.74239e-20)
(0.000823669 2.68033e-05 1.07029e-18)
(0.000799713 1.7162e-06 -2.72364e-18)
(6.08979e-06 1.22872e-06 0)
(0.000660923 -3.99128e-05 -1.12272e-19)
(0.00032334 -0.000143298 1.24277e-18)
(0.00262487 0.00081026 -3.36465e-19)
(7.69194e-06 0.000119927 -6.13055e-19)
(8.04571e-06 0.000147997 1.61925e-18)
(0.000666833 2.50571e-05 -3.89688e-20)
(5.5845e-05 -1.59358e-05 -7.49906e-19)
(0.000810975 3.73118e-05 -3.89702e-19)
(0.000717014 2.73046e-05 -4.10388e-20)
(3.22817e-05 0.000318703 -5.9696e-19)
(0.000500161 5.451e-05 -4.93767e-19)
(4.26131e-05 -4.20388e-06 1.56098e-19)
(0.000840768 3.90804e-05 -1.08887e-18)
(0.00153493 0.000234717 -1.13654e-18)
(5.05237e-06 5.38708e-05 4.96264e-19)
(0.000812717 3.5841e-05 -5.03355e-19)
(0.000922799 0.000552128 -7.84846e-20)
(0.000149312 0.000780705 0)
(0.000597561 6.28214e-05 0)
(0.000277826 4.28039e-05 -1.60903e-18)
(5.95418e-05 5.32188e-05 -1.37363e-18)
(2.76211e-05 1.79955e-05 0)
(0.00424754 0.00740057 -1.01941e-20)
(0.00422568 0.00737226 3.16447e-20)
(0.00442786 0.00757502 -4.9688e-21)
(0.0042058 0.0077336 0)
(0.00419827 0.0075994 5.77155e-19)
(0.00424453 0.00740173 -9.19886e-20)
(0.00420953 0.00804104 4.844e-19)
(0.00429023 0.00742297 0)
(0.00420788 0.00853393 6.16684e-19)
(0.0043268 0.0074516 2.23876e-19)
(0.000833254 1.94024e-05 -1.37248e-18)
(0.000781312 5.99785e-05 0)
(0.00021097 4.0796e-05 1.2766e-19)
(4.55936e-05 1.28844e-05 8.71547e-20)
(7.33062e-05 3.89904e-05 6.79791e-19)
(0.00010003 3.38759e-05 -3.41555e-19)
(9.23015e-05 -9.60938e-07 0)
(4.27698e-05 3.11688e-06 8.18087e-20)
(0.000207604 0.000122589 0)
(0.000160953 3.02706e-05 -5.24147e-20)
(0.000347381 0.000215801 -5.091e-21)
(5.19151e-05 3.826e-05 -4.37506e-19)
(8.47527e-05 2.09107e-05 -8.52184e-20)
(8.60943e-05 5.5171e-05 1.31151e-21)
(0.000260793 0.000360639 -6.65978e-19)
(0.000109766 0.000992058 0)
(3.90213e-05 4.79282e-05 3.42947e-19)
(0.000199265 0.00174263 0)
(0.000208721 0.000246947 7.04447e-19)
(3.18424e-05 -3.08365e-06 1.11456e-19)
(0.000492404 0.000160103 -1.72247e-19)
(0.000773544 2.62977e-05 -1.92348e-18)
(3.74073e-05 -1.68737e-06 4.77315e-24)
(0.000141375 1.48381e-05 2.24517e-19)
(0.000246204 8.15121e-05 -8.99038e-20)
(0.000882648 0.00069656 3.34843e-19)
(0.000727863 0.00163453 -9.23246e-21)
(0.000398222 0.00141939 -9.38384e-21)
(0.00102967 0.000546932 0)
(9.21784e-05 -2.02128e-05 1.11833e-18)
(0.000108176 6.71363e-06 -4.42858e-20)
(0.000470608 -0.000274703 -1.13594e-18)
(0.000823403 4.306e-05 0)
(0.000176325 -1.36526e-05 3.6319e-19)
(0.000304626 0.00129845 0)
(0.00108845 0.000774539 -7.29979e-20)
(0.000827196 2.8865e-05 -1.86487e-19)
(6.73749e-05 -2.3572e-05 -2.99876e-19)
(0.000839883 0.000315281 -2.07977e-20)
(4.64262e-05 -2.11934e-05 -5.99282e-19)
(0.000227558 0.000167115 8.63615e-20)
(0.000231693 0.000304701 -3.44907e-19)
(0.000896237 0.000252299 0)
(0.000824824 5.66722e-05 0)
(0.000266589 0.000124443 1.76792e-19)
(0.000232564 -1.44179e-05 6.56913e-24)
(0.000184954 0.000198901 0)
(0.000305465 0.000646671 -5.55541e-21)
(0.000359748 -2.63392e-05 0)
(0.000381664 0.000598253 0)
(0.000104647 7.45507e-05 -1.34626e-21)
(0.000810693 3.1265e-05 -9.57036e-19)
(0.000805614 1.78324e-05 7.97674e-19)
(0.000124157 4.85481e-05 -1.49807e-19)
(0.000970712 0.000146217 8.50116e-20)
(0.000840784 3.91253e-05 3.33509e-19)
(0.000821763 3.37533e-05 -2.93988e-19)
(0.00103145 0.000420171 0)
(0.00044694 0.000110453 6.24224e-19)
(0.000911069 0.000323211 2.09067e-20)
(0.000590208 0.000151271 0)
(0.000274366 0.000444643 4.09523e-19)
(0.000262922 0.000209654 -8.4392e-20)
(0.00110271 0.000383608 -7.81854e-19)
(0.000637886 0.000102551 -1.79228e-19)
(0.000820268 7.57971e-05 -7.45693e-21)
(0.000845206 2.44289e-05 9.39951e-20)
(5.6793e-05 -8.58633e-05 -1.98065e-18)
(0.000745251 0.000379792 2.19166e-19)
(0.000683135 6.83157e-05 2.30565e-20)
(0.000715235 0.000279123 1.61876e-23)
(0.000738748 0.000461343 -4.09557e-19)
(0.000852409 1.83344e-05 9.06754e-20)
(6.84943e-05 7.28786e-05 0)
(0.000662658 0.000424113 -4.65773e-20)
(0.000181945 8.50479e-05 0)
(0.000374315 0.000501676 -2.64762e-19)
(0.000311946 0.000158976 0)
(0.00068381 0.000205739 3.55104e-19)
(0.000658456 0.000259477 -4.37105e-20)
(7.954e-05 9.81083e-05 6.18951e-19)
(0.000884229 9.67793e-05 -1.63832e-18)
(5.27447e-05 1.83412e-05 2.57104e-19)
(0.000896859 7.36251e-05 -1.68596e-18)
(0.000848238 9.0675e-05 1.63005e-19)
(0.000814034 3.66635e-05 1.91207e-18)
(0.000821801 3.35161e-05 -1.328e-19)
(0.000744971 7.07039e-05 0)
(0.000805392 2.02409e-05 8.95308e-19)
(0.000971504 0.000236385 -4.26946e-19)
(0.000786632 9.9825e-05 -4.83565e-19)
(0.000782779 0.000236871 -8.80911e-20)
(0.000197943 -0.00019127 -2.07533e-18)
(0.000761249 8.09868e-05 8.87222e-19)
(0.000643514 0.000592304 0)
(6.32647e-05 -0.000122063 0)
(0.00122907 0.000475181 4.97124e-19)
(0.000562532 -5.74231e-05 -3.27055e-18)
(0.00135403 0.000416309 5.76271e-19)
(0.00125323 0.000719045 -6.38792e-20)
(0.000816624 3.37397e-05 -2.12682e-19)
(0.000842883 6.68147e-05 -1.42735e-18)
(0.000814751 2.77921e-05 1.58692e-18)
(0.000815637 2.16871e-05 9.77695e-20)
(0.000674611 0.000353467 -4.40259e-20)
(9.92165e-05 0.00011481 8.19111e-24)
(0.00076372 -3.07733e-05 2.64919e-19)
(0.000209195 -0.000262041 -7.31159e-19)
(0.000637483 0.000183079 0)
(0.000723333 5.0709e-05 9.90031e-20)
(0.000715986 9.56666e-06 -3.80671e-19)
(0.000395675 0.000164271 3.93236e-20)
(0.000812157 0.000510015 -1.65424e-19)
(0.000145326 6.61198e-05 3.87501e-25)
(0.000818953 0.000413231 0)
(0.00098828 0.000315825 4.15622e-20)
(0.00076789 -6.38853e-05 -6.15939e-19)
(0.000354427 9.54246e-05 4.97661e-19)
(0.000905046 0.000427882 0)
(4.51508e-05 2.75666e-05 1.33665e-19)
(0.000493234 0.000262458 2.1388e-19)
(0.000541618 -0.000169026 -7.0919e-19)
(9.93098e-05 -0.00017424 -1.0555e-18)
(0.000826753 3.95149e-05 -4.86547e-19)
(0.000762981 -6.7194e-05 -1.94451e-19)
(0.000549433 0.000729233 -1.17404e-18)
(0.000854613 4.66004e-05 -6.74383e-20)
(0.000575313 -1.22894e-05 1.28167e-18)
(0.000716801 9.95584e-05 2.27696e-20)
(0.000542447 0.000204544 -1.65631e-19)
(2.49192e-05 -1.91756e-05 -8.75542e-20)
(0.000152718 -5.81305e-05 2.4052e-18)
(1.32077e-05 5.66718e-07 -1.94786e-19)
(0.000840989 0.000118698 3.63614e-19)
(0.000679228 0.000135019 0)
(0.000172698 -0.000107618 -1.04783e-18)
(0.000112654 -2.63716e-05 3.12704e-19)
(9.4593e-05 -4.0446e-05 1.23838e-23)
(0.000808829 0.000105271 -3.19148e-19)
(0.000146068 -2.18846e-05 0)
(0.000594808 0.000238831 0)
(0.000111376 0.000323336 -3.6274e-19)
(0.000868015 0.000101522 2.10768e-18)
(1.07435e-05 7.71906e-07 0)
(0.0008874 5.26078e-05 0)
(3.64036e-05 -2.49114e-05 0)
(0.000815265 4.87286e-05 -4.46637e-21)
(0.000784033 -3.20266e-05 0)
(0.00426064 0.00740722 8.06849e-20)
(0.00436272 0.00748764 1.43324e-19)
(0.00084304 -1.5484e-05 0)
(0.000796803 -3.67347e-05 8.11821e-19)
(0.000151691 0.000116665 1.49161e-19)
(0.000861393 6.68857e-05 8.07817e-19)
(0.000127075 9.39207e-05 2.34317e-20)
(0.000790182 -2.21342e-05 6.24042e-19)
(3.11915e-05 8.10899e-06 0)
(2.31792e-05 -1.16622e-05 -4.48322e-20)
(0.000905841 4.77479e-05 -4.86369e-19)
(2.59424e-05 -2.87324e-05 -6.69568e-19)
(0.000767507 0.00012587 -4.23083e-20)
(0.000169085 0.000154416 -1.88039e-19)
(0.000814136 3.14687e-05 0)
(0.00468251 0.00815358 9.00261e-22)
(0.000191628 0.000791372 3.33365e-19)
(0.000100862 -6.63162e-05 -9.14206e-19)
(5.14772e-05 -3.47152e-05 -1.16837e-18)
(0.000599192 1.31206e-05 1.89767e-20)
(0.000584696 0.000404545 0)
(0.000424338 0.000445286 -2.56251e-19)
(6.84353e-05 -6.36155e-05 1.18332e-18)
(0.000559686 -1.01693e-06 7.68203e-20)
(3.75145e-05 1.12189e-06 4.0695e-19)
(0.000720827 -4.38222e-05 1.17117e-18)
(0.00081276 3.26359e-05 -6.0377e-19)
(5.12192e-05 -5.41331e-05 1.70883e-18)
(0.000841463 -3.91443e-05 -6.12768e-24)
(0.000575276 6.3359e-06 -3.75515e-20)
(0.000875755 7.1932e-05 0)
(0.000845484 4.91447e-05 0)
(0.00591625 0.00724326 2.598e-19)
(1.35524e-05 -2.89553e-06 -1.19552e-19)
(9.98086e-05 -0.00011393 7.72762e-19)
(0.00073588 0.000114799 -6.96178e-19)
(1.62164e-05 2.20647e-07 2.01471e-19)
(0.000647182 -3.62433e-05 -7.23534e-19)
(0.00075351 3.55784e-05 1.55745e-18)
(0.0007136 0.000157959 -3.55311e-19)
(0.000807425 -1.18229e-05 3.60786e-19)
(6.49787e-05 -3.64759e-05 1.11559e-18)
(0.000801388 6.49052e-06 -3.22569e-19)
(0.000873131 3.72952e-05 0)
(0.000549147 0.000302014 4.20875e-20)
(0.000865966 5.01159e-05 -9.47237e-19)
(1.42906e-05 2.84606e-06 9.11177e-19)
(0.000860193 4.25067e-05 9.65714e-19)
(0.000862331 2.22895e-05 -9.64347e-19)
(0.000763365 -2.37388e-07 -5.68953e-19)
(0.000543514 -8.17655e-05 -5.25448e-19)
(0.00432976 0.00745385 2.46998e-19)
(0.00422305 0.00752826 -2.53425e-19)
(0.00422068 0.00758604 2.66916e-19)
(0.00425628 0.00741109 1.97928e-19)
(0.000845118 -3.61339e-05 1.44218e-19)
(0.00447684 0.00751438 0)
(0.00440433 0.00751836 -3.86762e-19)
(2.28707e-05 -1.3494e-07 -9.97894e-19)
(0.00417027 0.0074687 -6.33538e-20)
(0.00414574 0.00743196 -2.21472e-19)
(0.00602919 0.0106051 0)
(0.00654028 0.011187 3.71352e-20)
(0.00600911 0.0105748 0)
(0.00655598 0.0112106 1.30876e-19)
(0.00599648 0.0105988 2.69635e-19)
(0.00659268 0.0112275 1.24603e-20)
(0.00593532 0.0106115 -7.76639e-19)
(0.00662295 0.0111465 8.15049e-21)
(0.00390345 0.00919768 -1.90787e-19)
(0.0041865 0.00748766 3.89949e-21)
(0.00423754 0.0075516 7.93468e-20)
(0.00415023 0.00743427 4.11957e-20)
(0.000892273 0.000195615 4.46575e-20)
(7.4567e-06 1.04341e-06 0)
(0.000722362 -0.000106007 0)
(0.000657921 5.62565e-05 0)
(0.00244473 0.00111699 4.23e-21)
(0.000758208 -3.07456e-05 1.72514e-19)
(3.61894e-05 4.56101e-06 4.539e-20)
(6.34184e-06 -2.2705e-05 1.65241e-18)
(0.000859874 6.95308e-06 0)
(2.49394e-05 1.0935e-05 -1.91661e-19)
(0.000139227 0.000217409 0)
(1.24216e-05 -8.49317e-07 0)
(9.75415e-06 -9.899e-07 0)
(0.000834475 0.000147144 1.13726e-20)
(0.000811093 -1.82567e-05 1.79509e-19)
(3.80978e-05 0.000260141 -1.17205e-23)
(0.000156562 0.000268107 -1.84136e-18)
(0.000610186 0.000326548 -8.56724e-20)
(0.000901249 0.000112282 6.0192e-19)
(0.000612288 -0.000164425 6.74285e-19)
(0.000358866 0.00111402 0)
(0.0004805 0.000575396 2.71449e-18)
(8.86034e-05 0.00013975 -1.80258e-18)
(1.60932e-05 -1.97988e-07 0)
(0.000822502 -6.31617e-05 3.64061e-20)
(1.43149e-05 3.22883e-05 1.64394e-18)
(0.000895486 3.52428e-05 2.71044e-19)
(-3.0602e-05 6.29412e-05 3.8118e-18)
(0.000927142 4.13828e-05 -2.68914e-19)
(0.0013367 0.000153198 7.47067e-19)
(3.00318e-05 -9.7491e-06 8.25425e-20)
(3.17338e-05 2.51934e-06 -8.58842e-19)
(5.07903e-05 0.000136121 0)
(0.000917987 8.75606e-05 5.98242e-19)
(0.000498004 0.000367016 2.37072e-19)
(0.000623365 1.73865e-05 -3.88931e-20)
(0.000786009 2.9431e-06 2.57314e-19)
(0.000731073 -0.000147918 0)
(0.00632098 0.0108955 -1.6804e-19)
(0.00637875 0.0109732 4.05782e-19)
(0.00615997 0.0107302 -6.18367e-19)
(0.00650128 0.0111323 -8.09694e-20)
(3.21784e-05 0.000113565 8.00279e-19)
(0.00092833 6.13338e-05 1.44379e-22)
(0.00641133 0.0110057 -3.86411e-19)
(0.00628195 0.0108451 5.48401e-19)
(0.00608007 0.0106719 -4.16786e-19)
(0.0065218 0.0111647 -6.8131e-20)
(7.90491e-05 0.000493582 -2.01759e-20)
(5.39165e-05 -0.000194844 -7.92531e-19)
(0.000645363 -2.01234e-05 -7.66213e-19)
(0.000729887 0.000219574 0)
(0.000800295 1.79781e-07 0)
(0.000188808 0.000386754 3.362e-19)
(0.000602257 0.000511046 -5.41705e-19)
(6.28993e-06 -1.10211e-06 1.78336e-19)
(0.000200039 0.000467006 -7.38184e-19)
(0.00102071 0.000978914 -1.12668e-19)
(0.000751911 0.000166169 0)
(0.000794088 0.000184936 1.30977e-19)
(0.00635065 0.00588306 1.13164e-18)
(0.000736805 0.00113091 8.26442e-20)
(3.60139e-05 3.50387e-05 -7.44443e-20)
(0.00080784 1.06723e-05 0)
(0.000871544 2.36171e-05 -3.56788e-20)
(3.0236e-05 2.29546e-06 -1.96665e-19)
(2.63288e-05 3.64516e-06 1.92937e-19)
(0.000834559 1.36777e-05 5.37028e-19)
(0.000982438 0.000113261 6.5818e-19)
(0.000540933 4.44828e-05 0)
(0.000222454 -0.000276638 -3.98083e-19)
(0.000919526 0.000143403 3.89458e-19)
(4.33444e-06 -4.96235e-05 2.02962e-19)
(0.00145372 0.000441963 -2.58062e-18)
(0.000567076 -1.21335e-05 0)
(0.000798678 0.000142393 3.75342e-19)
(9.58096e-05 0.000388575 0)
(0.00118858 0.00816129 4.62023e-19)
(0.000496193 0.000497875 -1.22419e-18)
(0.000540452 0.00101684 -1.83703e-19)
(0.000886961 1.47822e-05 -1.46007e-19)
(1.12062e-05 2.28122e-05 0)
(0.00095913 7.79966e-05 6.11425e-19)
(0.00410628 0.00739521 8.14149e-20)
(0.0041711 0.00747316 4.72964e-20)
(0.00450066 0.0075171 4.5402e-19)
(0.00444584 0.00754268 -3.29432e-19)
(0.0064752 0.0111092 8.10466e-20)
(0.00391485 0.00714606 -9.63428e-22)
(0.005508 0.00780001 -5.64672e-19)
(0.00409789 0.00737164 5.21798e-21)
(0.00518909 0.00785969 5.11609e-19)
(0.00407969 0.00734004 -4.87134e-20)
(0.00495434 0.00771919 0)
(0.00408496 0.00736436 -8.56448e-20)
(0.00474313 0.00759004 4.92459e-19)
(0.00409821 0.00737595 8.75007e-20)
(0.00457581 0.00752969 0)
(0.0042842 0.00742147 1.39723e-19)
(0.0042389 0.00759764 5.80601e-19)
(0.00446828 0.0075282 -5.55496e-19)
(0.0043885 0.00750587 3.71328e-19)
(0.0042276 0.0075242 2.87581e-19)
(0.00643053 0.0110425 -4.97676e-21)
(0.00411771 0.00740131 3.11551e-20)
(0.00645867 0.0110724 0)
(2.12312e-05 4.75049e-06 -1.89799e-19)
(0.00200092 0.00654615 2.28168e-19)
(0.000838188 -5.82418e-05 1.09712e-19)
(0.000853421 3.43052e-06 0)
(9.13046e-07 6.61815e-07 -3.98983e-19)
(-2.88718e-05 -9.34244e-05 6.9086e-19)
(2.34737e-05 5.31345e-05 2.08836e-18)
(0.000835876 0.000185184 -9.00392e-20)
(0.000801418 8.39134e-06 7.06153e-19)
(4.27835e-07 -2.00196e-07 3.09888e-19)
(1.45368e-05 -2.95448e-05 -1.84503e-18)
(0.000763633 2.67796e-05 1.63098e-19)
(0.000871673 0.000124871 -3.07881e-20)
(0.000800963 -7.44059e-06 1.48083e-19)
(0.000429546 0.000679442 0)
(1.45938e-05 -0.000136987 1.15103e-18)
(0.00087232 2.02966e-06 1.52474e-19)
(1.8413e-05 2.16958e-05 0)
(0.000118962 0.000555066 -6.31089e-19)
(0.000612846 0.000586451 1.31757e-18)
(0.000330856 0.000756844 0)
(0.000802051 -1.49916e-05 0)
(0.000801723 3.03789e-06 1.17644e-18)
(1.55692e-05 4.57165e-05 -3.51387e-18)
(1.4593e-05 5.95893e-06 3.73503e-19)
(0.000116501 0.000138978 0)
(3.69675e-05 -3.90322e-05 0)
(5.95128e-05 0.000107818 2.00937e-19)
(0.000941744 0.000190354 3.50314e-19)
(0.000800733 1.46776e-05 -1.39649e-18)
(2.11782e-05 3.04181e-05 0)
(0.000422202 4.19629e-06 -6.04391e-20)
(0.000800156 3.61449e-05 -1.56298e-19)
(0.000848539 4.47284e-05 1.06477e-18)
(0.000254698 0.000542115 6.32055e-19)
(0.000882948 0.000157485 0)
(1.44901e-05 -2.04678e-05 5.38436e-19)
(1.64106e-06 -3.04728e-06 -3.19863e-19)
(0.000951374 3.39868e-05 0)
(0.00104549 0.00226952 0)
(0.00091162 1.09308e-06 0)
(0.00100627 0.000208549 4.27031e-19)
(0.00081847 -3.69067e-05 -2.84187e-19)
(0.000940123 0.000111399 -6.8454e-19)
(0.000801129 3.55557e-06 0)
(4.06042e-05 6.4552e-05 -1.71513e-19)
(0.000174697 0.000323778 1.08083e-18)
(0.000800617 1.34395e-05 -2.36096e-23)
(0.00110312 0.000209634 -6.6857e-19)
(0.00108884 0.000128585 0)
(2.00896e-06 4.37834e-06 2.50949e-19)
(1.51753e-05 -1.30898e-05 -1.94252e-19)
(0.000556661 4.56741e-05 6.94791e-21)
(-3.35909e-06 -6.49388e-05 0)
(0.00107304 0.000256512 9.49668e-19)
(0.00502866 0.00974818 -2.82891e-19)
(0.00312144 0.00961683 1.27225e-18)
(2.22772e-05 -9.57609e-05 -1.91263e-19)
(4.12349e-05 -7.16934e-05 1.85885e-18)
(0.00119045 0.000255792 1.67294e-19)
(0.00133062 0.00107651 2.34025e-19)
(0.000810652 2.48808e-06 -7.35673e-19)
(0.000197892 0.000949733 -2.38179e-19)
(0.000819018 0.000945196 -2.18525e-19)
(0.000800298 -2.14772e-06 0)
(8.20917e-05 0.000613209 0)
(9.46118e-05 0.000278271 -3.66151e-23)
(0.000719327 -4.68663e-05 -1.6743e-23)
(0.000826222 6.92693e-05 1.52554e-19)
(0.00263148 0.00206555 -1.23109e-18)
(0.0017604 0.00923778 -1.1718e-19)
(0.000834613 6.74867e-05 4.92144e-19)
(0.00632132 0.00405235 -1.761e-19)
(0.00672092 0.0115574 -1.36472e-20)
(0.00473411 0.00784384 4.92952e-21)
(0.000804899 1.36531e-05 -2.16562e-18)
(0.000842032 1.98833e-06 7.2434e-24)
(6.10862e-06 -5.86832e-06 -3.47908e-19)
(4.54319e-05 8.48841e-05 -3.49172e-19)
(6.28414e-05 0.000262942 8.75e-19)
(9.31918e-06 1.42571e-05 4.90253e-19)
(8.97063e-05 0.000224725 3.69659e-19)
(0.000820484 1.66566e-05 0)
(0.00534813 0.00949234 1.95007e-20)
(0.00154447 0.000637953 -2.61165e-20)
(0.00081945 3.93864e-05 3.60058e-19)
(2.02191e-05 -7.49052e-05 0)
(0.00184807 0.000749563 5.45869e-19)
(7.77871e-06 6.23936e-06 -2.7007e-19)
(3.14493e-05 2.58883e-05 9.7152e-20)
(0.00133446 0.00139806 6.36503e-19)
(0.000738656 4.96376e-05 1.83044e-19)
(2.54696e-06 -9.60624e-07 -1.70149e-19)
(0.00206353 0.00156266 -1.0556e-18)
(0.000126657 0.000173417 -8.18525e-19)
(0.00392047 0.00848778 -1.09063e-18)
(3.73802e-06 1.10787e-06 8.81155e-20)
(0.000104693 -5.89775e-05 -1.25784e-18)
(3.84812e-05 -5.47129e-05 4.05515e-20)
(0.00152949 0.000987676 0)
(0.00104244 0.000139954 -4.01401e-22)
(0.000453756 0.00084707 -4.01942e-20)
(0.000803267 2.7687e-05 -2.34002e-19)
(8.69678e-05 0.000179709 7.35855e-19)
(2.24339e-05 -5.54858e-05 4.03873e-19)
(1.67481e-05 1.35774e-05 -9.4681e-20)
(2.92342e-05 8.68789e-05 -3.20193e-19)
(0.000214383 -0.000190237 -5.45393e-19)
(0.00325019 0.00346584 2.90846e-21)
)
;

boundaryField
{
    back
    {
        type            empty;
    }
    ingreso
    {
        type            fixedValue;
        value           uniform (0.0008 0 0);
    }
    salida
    {
        type            zeroGradient;
    }
    front
    {
        type            empty;
    }
    defaultFaces
    {
        type            noSlip;
    }
}


// ************************************************************************* //
