/*--------------------------------*- C++ -*----------------------------------*\
  =========                 |
  \\      /  F ield         | OpenFOAM: The Open Source CFD Toolbox
   \\    /   O peration     | Website:  https://openfoam.org
    \\  /    A nd           | Version:  8
     \\/     M anipulation  |
\*---------------------------------------------------------------------------*/
FoamFile
{
    version     2.0;
    format      ascii;
    class       volScalarField;
    location    "0.2";
    object      p;
}
// * * * * * * * * * * * * * * * * * * * * * * * * * * * * * * * * * * * * * //

dimensions      [0 2 -2 0 0 0 0];

internalField   nonuniform List<scalar> 
4280
(
7.3137e-06
1.80922e-06
7.27636e-06
7.81875e-06
4.58188e-06
6.34135e-06
3.65317e-06
2.64687e-06
5.46685e-06
3.41619e-07
7.32593e-06
1.21603e-06
7.2826e-06
7.5599e-06
4.55948e-06
2.87372e-06
6.94929e-06
7.79668e-06
7.90676e-06
2.71481e-06
7.3616e-06
1.47415e-06
7.26915e-06
3.77665e-06
2.93329e-06
7.29567e-07
1.80155e-06
4.09907e-06
2.80316e-06
7.83838e-06
4.47832e-06
-4.01185e-07
6.59291e-06
5.34706e-06
7.63997e-06
3.0823e-06
6.034e-06
8.37113e-06
1.55258e-06
5.02883e-06
8.0017e-06
7.25432e-06
8.19753e-06
3.05963e-06
1.38494e-07
7.48237e-06
7.73403e-06
3.17007e-06
3.84981e-06
6.53537e-06
5.73841e-06
2.96371e-06
2.38451e-06
8.26966e-06
9.87339e-06
2.77448e-06
2.76633e-06
5.38336e-06
5.03902e-06
3.06128e-06
2.10466e-06
2.52087e-06
6.24486e-06
6.1386e-06
4.27184e-06
2.17724e-06
7.65799e-06
8.06198e-06
1.94393e-06
2.90135e-06
1.32826e-06
2.96222e-06
1.91267e-06
5.61847e-06
7.88142e-06
8.29823e-06
4.23133e-06
7.95525e-07
3.1044e-06
7.73512e-06
9.68476e-07
1.69674e-06
7.15425e-06
2.41644e-06
4.30091e-06
7.81027e-06
1.36637e-06
9.6434e-07
7.59367e-06
-4.86048e-07
2.11061e-06
7.49818e-06
6.00196e-07
1.10517e-06
7.65767e-06
2.79214e-06
6.03784e-06
2.01141e-06
4.50407e-06
2.83631e-06
5.11301e-06
6.39066e-06
3.83035e-06
4.03153e-06
2.98704e-06
5.23682e-06
5.88893e-06
6.14957e-06
3.55018e-06
7.38108e-06
7.15932e-06
5.27653e-06
4.34326e-06
7.75475e-06
7.2886e-06
3.76503e-06
7.08407e-06
6.91026e-06
7.50671e-06
7.86936e-06
7.52492e-06
1.72026e-06
2.3852e-06
1.43101e-06
5.16902e-06
7.29341e-06
7.8336e-06
1.4027e-06
7.74844e-06
6.17276e-06
5.07701e-06
2.77098e-06
2.27912e-06
4.48258e-06
7.07385e-06
-5.78663e-07
4.14262e-06
2.71755e-06
2.6889e-06
2.24536e-06
4.9987e-06
-1.19546e-07
7.4627e-06
5.39489e-06
4.51646e-06
5.89582e-06
6.69105e-06
3.64285e-07
7.66209e-06
4.75007e-06
7.56207e-06
1.27225e-05
1.32009e-06
7.75507e-06
7.59656e-06
2.1335e-06
7.16335e-06
3.45463e-06
5.596e-06
3.82157e-06
5.87344e-06
5.59963e-06
7.2886e-06
7.37018e-06
6.31196e-06
7.12882e-06
2.54158e-06
3.44506e-06
3.04192e-06
1.02176e-06
3.52468e-06
1.10925e-06
4.41858e-06
-1.41554e-07
7.29256e-06
7.68022e-07
7.00859e-06
6.32474e-06
1.20589e-06
2.82694e-06
7.51276e-06
7.73087e-06
8.43511e-06
6.38416e-06
4.46062e-06
6.72095e-06
7.23677e-06
7.81426e-06
2.90428e-06
7.02896e-07
6.35865e-06
7.59053e-06
2.49676e-06
3.03435e-06
6.98634e-07
6.54728e-06
3.96314e-06
4.51189e-06
3.57343e-06
6.45063e-06
7.89047e-06
8.40041e-06
3.55848e-06
4.95243e-07
3.82432e-06
6.71046e-06
5.26527e-06
1.72348e-06
2.58052e-06
4.45033e-06
4.05485e-06
7.56836e-06
4.7994e-06
7.80682e-06
1.75278e-06
6.98928e-06
6.66676e-06
4.73262e-06
1.3485e-06
8.43449e-06
2.55365e-06
7.39218e-06
7.55684e-06
7.56298e-06
6.51006e-06
7.47733e-06
8.17293e-06
4.65986e-06
6.17035e-06
7.01474e-06
5.45341e-06
2.42669e-06
7.90058e-06
6.84231e-06
2.72419e-06
7.68261e-06
7.38637e-06
4.20706e-06
8.05741e-06
1.82773e-06
2.66928e-06
6.11352e-06
5.85743e-06
7.34999e-06
2.4723e-06
1.97093e-06
8.6498e-07
1.74841e-06
1.59343e-06
1.86278e-06
6.97561e-06
3.38894e-06
5.554e-06
8.16592e-07
4.98281e-07
3.00073e-06
8.8871e-06
3.07545e-06
7.97091e-06
7.48896e-06
6.87807e-06
6.98294e-06
7.0919e-06
1.16581e-06
8.78122e-06
3.60471e-06
5.71111e-06
5.39577e-06
6.40636e-06
7.87491e-06
-9.08355e-07
4.17041e-06
2.52319e-06
3.86766e-06
3.63053e-06
2.6689e-06
7.5e-06
2.79565e-06
4.39359e-06
8.26332e-06
5.04138e-06
7.35036e-06
2.04462e-06
6.88023e-06
3.55981e-06
7.47508e-06
6.72327e-06
2.17845e-06
3.1575e-06
1.24401e-06
1.27748e-06
-8.67799e-08
6.66429e-07
6.56895e-06
5.38528e-06
7.45651e-06
5.45036e-07
6.8684e-06
2.43815e-06
4.94194e-06
7.49016e-06
7.429e-06
6.21742e-06
5.98183e-06
1.42261e-06
1.95652e-06
1.12029e-06
8.08565e-06
6.07608e-06
9.87374e-07
2.60483e-06
7.17408e-06
2.22893e-06
7.44645e-06
7.68745e-06
1.451e-06
7.31788e-06
7.6736e-06
1.99225e-06
1.38825e-06
8.25528e-06
5.67203e-07
-3.20165e-07
3.30553e-06
1.01747e-06
-6.24026e-07
5.86379e-07
7.58663e-06
2.52062e-06
3.25245e-06
6.56128e-06
1.23513e-06
6.60151e-06
7.22685e-06
6.86797e-06
6.75921e-07
2.52792e-06
5.16335e-06
6.35161e-06
2.80208e-06
6.88144e-06
2.58567e-06
7.4325e-06
4.38078e-06
1.26279e-06
2.93974e-06
8.13539e-06
7.8311e-06
9.99985e-07
3.71167e-06
7.62527e-06
8.19257e-06
3.92981e-06
7.66399e-07
6.66492e-06
6.0717e-06
5.87058e-06
9.06848e-06
2.43737e-06
3.86107e-06
6.95294e-06
7.56221e-06
6.95459e-06
2.8441e-06
4.8104e-06
5.90585e-06
5.50276e-06
6.7317e-06
3.71483e-06
6.48204e-06
4.78953e-07
4.42702e-06
2.04761e-06
8.71352e-06
4.63275e-06
7.18284e-06
4.22117e-06
7.46219e-06
1.06725e-06
6.76428e-06
7.08347e-06
7.26101e-06
7.21677e-06
7.80257e-06
1.66206e-07
5.73347e-06
6.7828e-06
1.33526e-06
6.65795e-06
8.48617e-06
7.1143e-06
8.35872e-07
7.66125e-06
7.52073e-06
6.34907e-06
5.26423e-06
6.07848e-07
7.1941e-06
6.40011e-06
5.27696e-06
8.10642e-06
2.55996e-06
1.0256e-06
1.13251e-06
5.05327e-06
8.14226e-06
5.86892e-06
3.29669e-06
1.25695e-06
6.73857e-06
2.48244e-06
7.35247e-06
6.82129e-06
3.41413e-06
3.36986e-06
1.69591e-06
7.15162e-06
2.7811e-06
6.89741e-06
7.66236e-06
3.36142e-07
7.74321e-06
4.32441e-06
7.59599e-06
3.74311e-06
6.46703e-06
5.08116e-06
7.14327e-06
5.97515e-06
6.79794e-06
2.60527e-06
5.70229e-06
8.22941e-06
7.72255e-06
6.92664e-06
8.2032e-06
8.40247e-06
2.71477e-06
7.49395e-06
8.28531e-06
5.60963e-06
3.67237e-06
7.63314e-06
-4.32035e-07
3.0785e-06
6.67309e-06
7.95214e-06
6.89378e-06
7.95716e-06
7.32322e-06
8.94462e-06
7.51777e-06
6.7316e-06
6.81001e-06
2.56769e-07
7.29538e-06
7.26479e-06
7.59294e-06
7.30366e-06
7.80778e-06
7.33934e-06
1.06482e-05
8.15677e-06
7.29129e-06
1.64978e-06
7.39832e-06
7.54526e-06
6.98266e-06
7.34706e-06
1.69626e-06
7.06789e-07
1.01337e-05
7.80227e-06
-1.6321e-07
-6.53251e-07
7.7222e-06
2.8197e-06
7.25243e-06
2.61312e-06
5.58476e-06
1.2841e-05
8.12472e-06
4.66039e-06
3.02755e-06
2.71692e-06
9.39058e-07
5.62002e-06
6.80693e-06
7.63434e-06
6.44092e-06
5.70295e-06
7.83113e-06
5.41015e-06
5.59442e-07
7.33994e-06
7.49957e-06
6.43407e-06
6.54443e-06
2.40245e-06
6.12378e-06
5.54833e-06
8.45447e-06
7.26424e-06
7.65913e-06
7.06348e-06
7.11213e-06
3.56638e-06
3.76823e-06
3.04916e-06
7.40665e-06
3.84751e-06
7.45341e-06
7.79174e-06
7.34984e-06
6.4537e-06
2.60243e-06
7.06305e-06
7.14415e-06
7.93064e-07
7.335e-06
6.78239e-06
7.95793e-06
1.42701e-07
7.25146e-06
8.00515e-06
7.82367e-06
7.15592e-06
3.7311e-06
8.22869e-06
7.4363e-06
3.00004e-06
7.30544e-06
7.65193e-06
8.01545e-06
7.12216e-06
6.38464e-06
1.11398e-06
5.76196e-06
7.15843e-06
6.41734e-06
8.57286e-07
9.5182e-06
7.84776e-06
7.60901e-06
7.49516e-06
8.90959e-06
1.98378e-06
1.60132e-06
7.76814e-06
6.06658e-06
6.95911e-06
6.89189e-06
6.82487e-06
6.73035e-06
7.62144e-06
9.53027e-06
7.26293e-06
2.56821e-06
7.14816e-06
4.71718e-06
8.23423e-06
6.56358e-06
1.28738e-06
4.78213e-06
7.80426e-06
1.23535e-06
6.43871e-06
1.46559e-06
7.60147e-06
4.14491e-06
6.94904e-06
8.37971e-06
6.40778e-06
7.54798e-06
8.40265e-07
1.11033e-06
7.95796e-06
6.51453e-07
6.7781e-06
7.52121e-06
1.32111e-06
1.20396e-06
6.04029e-06
6.6358e-06
7.06779e-06
6.63769e-06
7.05222e-06
6.82289e-06
7.62608e-06
6.04261e-06
5.62232e-06
5.18339e-06
7.82154e-06
5.50264e-06
7.68045e-06
1.82776e-06
5.79141e-06
6.58943e-06
7.87962e-06
5.86358e-06
7.51481e-06
7.0076e-06
7.23042e-06
1.6107e-06
7.52836e-06
7.20696e-06
6.7628e-06
5.62273e-06
5.23631e-06
7.46719e-06
7.26427e-06
6.14206e-06
1.25911e-06
3.05668e-06
9.49958e-07
4.21318e-06
7.12213e-06
7.5042e-06
3.21733e-06
6.95465e-06
7.43493e-06
7.29165e-06
1.92783e-06
5.98731e-06
7.23024e-07
7.29557e-06
5.18224e-06
7.69035e-06
7.89578e-06
6.90512e-06
8.01333e-07
4.25679e-07
4.65905e-06
6.4654e-06
7.28081e-06
5.33616e-06
8.71395e-06
5.00649e-06
6.67512e-06
7.40166e-06
3.92866e-06
7.48548e-06
5.21398e-06
1.32925e-05
1.38584e-06
7.79798e-06
6.81978e-06
7.06523e-06
1.0464e-05
4.60853e-06
6.57583e-06
7.44472e-06
1.5519e-06
6.9693e-06
5.44885e-06
7.98516e-06
5.17778e-07
7.14411e-06
8.49595e-06
6.77014e-06
6.97746e-06
5.00055e-06
-3.30046e-07
6.02417e-06
6.14165e-06
5.94803e-06
5.6431e-06
6.00062e-06
7.21819e-06
5.62483e-06
7.7365e-06
6.75109e-06
6.75477e-07
5.49038e-06
5.71935e-06
6.6677e-06
6.67242e-06
3.98557e-06
7.08759e-06
7.46438e-06
4.9543e-07
7.31879e-06
6.93286e-06
7.58147e-06
7.91193e-06
7.11338e-06
6.54238e-06
7.41584e-06
8.01319e-06
5.51288e-06
7.08846e-06
5.5319e-06
6.04968e-06
6.40354e-06
6.55934e-06
5.41499e-06
4.90288e-06
1.46734e-05
6.31011e-06
4.52666e-06
6.86368e-06
6.48008e-06
1.23388e-06
6.65395e-06
5.24719e-06
5.2117e-06
7.26066e-06
6.12256e-06
5.72037e-06
7.67201e-06
6.41312e-06
2.8955e-06
7.07254e-06
6.29358e-06
6.58223e-06
5.08046e-06
7.26472e-06
6.85065e-06
7.90874e-06
5.6746e-06
7.45654e-06
6.80423e-06
5.99982e-06
7.70225e-06
6.10358e-06
1.01051e-05
1.25914e-05
7.36293e-06
6.36312e-06
7.2673e-06
6.16686e-06
1.08648e-06
1.03528e-06
1.70008e-06
6.46152e-06
7.36341e-06
5.78505e-06
4.21892e-06
7.21567e-06
6.56928e-06
7.35e-06
4.24802e-06
7.44356e-06
7.37742e-06
5.82846e-06
6.2696e-06
7.52224e-06
6.67797e-06
4.59735e-06
5.43061e-06
7.97682e-06
1.32883e-05
6.23333e-06
6.53945e-06
5.17831e-06
5.39997e-06
4.87325e-06
5.388e-06
6.18437e-06
5.41652e-06
1.16549e-06
7.43225e-06
7.77738e-06
5.63508e-06
6.51979e-06
5.73555e-06
5.903e-06
6.0924e-06
5.66967e-06
7.22312e-06
6.37281e-07
5.37068e-06
7.11824e-06
7.32074e-06
7.63909e-06
6.15803e-06
6.04994e-06
7.62456e-06
5.49307e-06
1.25076e-06
1.19091e-06
6.20502e-06
7.5528e-06
6.88531e-06
6.59162e-06
6.12839e-06
7.19012e-06
6.98127e-06
5.77277e-06
5.96674e-06
7.55305e-06
6.77491e-06
7.28914e-06
6.00037e-06
7.2426e-06
5.06964e-06
6.32646e-06
1.20975e-06
5.10704e-06
6.18302e-06
4.55916e-06
7.34999e-06
5.94702e-06
6.09395e-06
7.64831e-06
7.34e-06
5.05895e-06
6.71515e-06
6.07063e-06
2.91959e-06
2.12429e-07
5.5445e-06
6.18704e-06
-4.57303e-08
5.48029e-06
6.20755e-06
8.12379e-06
7.24538e-06
3.38056e-06
1.02525e-05
5.86999e-06
6.16892e-06
6.74823e-06
6.1472e-06
6.71113e-06
3.18831e-06
6.16615e-06
7.46031e-06
6.35629e-06
7.28525e-06
6.15681e-06
6.3076e-06
5.03111e-06
6.24341e-06
5.90598e-06
6.20234e-06
6.13118e-06
8.0119e-06
6.41773e-06
6.66167e-06
4.85807e-06
6.02508e-06
7.02926e-06
5.80097e-06
5.08692e-06
6.05086e-06
5.27242e-06
5.88574e-06
7.27142e-06
5.12071e-06
7.24462e-06
5.53505e-06
6.6498e-06
5.56066e-06
7.02849e-06
6.12225e-06
1.27445e-06
5.57817e-06
6.03448e-06
5.72608e-06
5.89726e-06
5.78192e-06
8.25603e-06
6.88303e-06
6.97826e-06
5.47014e-06
6.48462e-06
7.05608e-06
6.31803e-06
5.99278e-06
6.44415e-06
6.85452e-06
6.29151e-06
5.51162e-06
5.1268e-06
6.57296e-06
9.14065e-06
7.03535e-06
5.76332e-06
6.32937e-06
5.74579e-06
5.37975e-06
1.04057e-06
7.33768e-06
6.0084e-06
5.59044e-06
5.93841e-06
5.52926e-06
6.32563e-06
6.06884e-06
6.20078e-06
5.67489e-06
4.50022e-06
6.12752e-06
7.27986e-06
1.59439e-06
5.147e-06
6.00906e-06
5.89742e-06
4.02619e-06
7.23515e-06
6.29457e-06
6.15846e-06
5.5553e-06
5.53143e-06
6.05902e-06
4.35084e-06
5.44684e-06
4.70558e-06
5.19641e-06
5.60366e-06
6.10221e-06
5.16244e-06
7.42218e-06
5.36109e-06
7.39332e-06
5.84257e-06
6.31804e-06
1.08896e-06
5.57902e-06
4.4117e-06
5.76319e-06
5.00542e-06
5.7215e-06
1.3644e-06
5.41964e-06
4.25568e-06
5.62517e-06
5.57947e-06
5.55562e-06
7.7261e-06
4.19242e-06
6.01104e-06
5.73704e-06
4.41817e-06
3.94139e-06
5.57613e-06
5.22229e-06
5.78996e-06
5.36524e-06
7.2257e-06
5.15493e-06
6.26358e-06
5.46409e-06
5.3548e-06
5.54475e-06
5.08014e-06
6.04118e-06
5.28772e-06
5.80779e-06
4.85759e-06
5.24005e-06
5.21744e-06
4.85034e-06
4.63251e-06
5.37558e-06
7.34293e-06
5.87546e-06
5.14376e-06
5.563e-06
5.39144e-06
5.1499e-06
5.47416e-06
5.32918e-06
5.884e-06
1.97131e-06
5.79038e-06
5.5119e-06
5.4562e-06
4.82357e-06
5.43332e-06
4.79188e-06
5.32115e-06
4.85673e-06
6.02031e-06
5.99607e-06
4.03657e-06
4.55223e-06
6.12752e-06
4.53822e-06
6.31786e-06
4.6137e-06
4.03923e-06
5.28612e-06
4.47003e-06
5.31279e-06
5.96126e-06
5.77846e-06
5.196e-06
5.16841e-06
3.17747e-06
4.87393e-06
5.29519e-06
4.99871e-06
4.94149e-06
3.93461e-06
4.82207e-06
5.18249e-06
5.19942e-06
8.0795e-06
4.88841e-06
4.78955e-06
4.5854e-06
1.91855e-06
5.05044e-06
5.15354e-06
4.97912e-06
5.73625e-06
5.46199e-06
5.06392e-06
5.50863e-06
4.59561e-06
4.91585e-06
6.28676e-06
4.80709e-06
4.93294e-06
5.22311e-06
5.23931e-06
4.08055e-06
5.81382e-06
4.13199e-06
7.32149e-06
4.6993e-06
4.67111e-06
5.22894e-06
4.34422e-06
6.03925e-06
5.20643e-06
5.29236e-06
4.82161e-06
4.89733e-06
5.14756e-06
4.73947e-06
3.89012e-06
4.87414e-06
4.93028e-06
4.44437e-06
4.74631e-06
4.94633e-06
5.84853e-06
5.05441e-06
4.37935e-06
4.99125e-06
6.06894e-06
5.07919e-06
4.77547e-06
5.60451e-06
4.99834e-06
5.25915e-06
6.45875e-06
3.93089e-06
5.77577e-06
4.63293e-06
4.70902e-06
5.02077e-06
4.01945e-06
4.84124e-06
3.12429e-06
3.48791e-06
3.47246e-06
5.04334e-06
4.40774e-06
5.01078e-06
2.36566e-06
4.7827e-06
3.6604e-06
4.2585e-06
4.84907e-06
4.65533e-06
5.813e-06
3.72021e-06
4.96002e-06
5.27695e-06
4.875e-06
4.72209e-06
4.5198e-06
4.06775e-06
3.80575e-06
4.70309e-06
4.62544e-06
5.6169e-06
4.72234e-06
4.38997e-06
4.40119e-06
4.74355e-06
4.00939e-06
4.98442e-06
4.04451e-06
4.6248e-06
4.27686e-06
4.52654e-06
5.00084e-06
5.29782e-06
3.58335e-06
4.70831e-06
4.27253e-06
4.3292e-06
4.34187e-06
4.32043e-06
3.61697e-06
3.82002e-06
4.74488e-06
4.77143e-06
4.69348e-06
3.83806e-06
5.16402e-06
4.87088e-06
4.02211e-06
4.37003e-06
5.16113e-06
4.1113e-06
4.75401e-06
5.66539e-06
5.88354e-06
4.97557e-06
5.24709e-06
4.48689e-06
4.70746e-06
4.17231e-06
4.35621e-06
4.3971e-06
4.54203e-06
4.2109e-06
5.82482e-06
4.96136e-06
5.03609e-06
4.51203e-06
4.40952e-06
4.16424e-06
4.35474e-06
4.30577e-06
4.17862e-06
5.03274e-06
3.67192e-06
3.88341e-06
2.03042e-06
4.61801e-06
3.38098e-06
4.4263e-06
3.80219e-06
3.87027e-06
2.16087e-06
4.56834e-06
4.99299e-06
4.32547e-06
5.07894e-06
4.83363e-06
4.53072e-06
2.13256e-06
4.96402e-06
4.78782e-06
3.68023e-06
4.2262e-06
4.02179e-06
4.26587e-06
4.80172e-06
4.51141e-06
4.84311e-06
4.44436e-06
4.19235e-06
4.27759e-06
3.09346e-06
2.95258e-06
1.96666e-06
4.07909e-06
1.98631e-06
3.86582e-06
4.61728e-06
3.81109e-06
4.99069e-06
3.68598e-06
3.82713e-06
3.40254e-06
4.09336e-06
4.06048e-06
4.31326e-06
4.42547e-06
2.60457e-06
3.29447e-06
3.17975e-06
4.40168e-06
3.61456e-06
3.5668e-06
3.32071e-06
4.32712e-06
4.6679e-06
3.41711e-06
4.33495e-06
4.32846e-06
4.0969e-06
3.23621e-06
4.13523e-06
3.78204e-06
3.78643e-06
4.49147e-06
4.07436e-06
2.91889e-06
3.67307e-06
4.58359e-06
3.94446e-06
3.25055e-06
3.06165e-06
3.54444e-06
4.66185e-06
3.63007e-06
4.29623e-06
4.25461e-06
2.83103e-06
3.5496e-06
3.75812e-06
4.09045e-06
5.42805e-06
4.05217e-06
3.90441e-06
4.27103e-06
3.52766e-06
2.12701e-06
2.85055e-06
4.46733e-06
3.10492e-06
3.53292e-06
4.11923e-06
4.88276e-06
3.65792e-06
3.86143e-06
4.35588e-06
4.4401e-06
4.04482e-06
3.46603e-06
4.59387e-06
4.45153e-06
3.89104e-06
2.51642e-06
4.28624e-06
4.11428e-06
4.24006e-06
4.84598e-06
4.44337e-06
3.64952e-06
3.70574e-06
4.31273e-06
3.94888e-06
3.71321e-06
2.74357e-06
2.77403e-06
3.00867e-06
4.62129e-06
3.50297e-06
3.96026e-06
3.79959e-06
2.79538e-06
5.03306e-06
4.15999e-06
3.56296e-06
3.87321e-06
3.71324e-06
4.26342e-06
3.1326e-06
3.84173e-06
3.83365e-06
3.96225e-06
3.6755e-06
2.66875e-06
3.22962e-06
3.97255e-06
3.57389e-06
3.34479e-06
4.33286e-06
3.02917e-06
3.48757e-06
3.41551e-06
3.52044e-06
2.4478e-06
4.20539e-06
3.56381e-06
3.38105e-06
3.78069e-06
3.23314e-06
3.38374e-06
3.51581e-06
4.18772e-06
4.1959e-06
4.99426e-06
3.24333e-06
3.66314e-06
2.85917e-06
3.77169e-06
3.16574e-06
3.76485e-06
3.50762e-06
3.51269e-06
3.24903e-06
4.235e-06
3.49743e-06
4.11401e-06
2.8405e-06
3.30384e-06
2.87293e-06
3.44968e-06
3.99026e-06
2.9122e-06
3.12301e-06
3.76695e-06
3.67627e-06
3.59575e-06
2.94128e-06
3.91877e-06
3.31799e-06
2.78369e-06
3.69021e-06
4.10275e-06
3.53178e-06
2.45238e-06
2.79259e-06
3.51576e-06
3.32679e-06
2.881e-06
4.9106e-06
3.15222e-06
3.37605e-06
3.04389e-06
3.30639e-06
2.37313e-06
3.15151e-06
3.69282e-06
3.32182e-06
2.99313e-06
3.71937e-06
3.52122e-06
4.69649e-06
3.20555e-06
3.78952e-06
4.01951e-06
3.94731e-06
2.98493e-06
3.33056e-06
3.58667e-06
4.01276e-06
2.79379e-06
3.39998e-06
3.1185e-06
3.4565e-06
3.36147e-06
3.54657e-06
2.40504e-06
2.81068e-06
3.61057e-06
4.13023e-06
3.00099e-06
3.14562e-06
3.44456e-06
3.19322e-06
3.17998e-06
3.20836e-06
2.72092e-06
4.11704e-06
3.44769e-06
1.70213e-06
3.67312e-06
3.52694e-06
2.6179e-06
3.70871e-06
4.1338e-06
1.85386e-06
1.7289e-06
3.06381e-06
3.85453e-06
3.00442e-06
2.08703e-06
2.32565e-06
3.666e-06
3.0438e-06
3.05744e-06
2.61814e-06
3.91183e-06
3.47129e-06
3.76006e-06
2.73514e-06
3.07834e-06
4.77289e-06
2.63635e-06
2.44956e-06
4.79201e-06
3.18088e-06
1.79822e-06
3.54625e-06
2.36938e-06
2.97993e-06
2.69926e-06
2.25408e-06
2.22941e-06
3.57728e-06
3.90336e-06
2.9445e-06
2.89784e-06
2.95025e-06
3.06787e-06
3.33206e-06
3.18559e-06
3.3057e-06
3.18223e-06
3.04682e-06
2.49892e-06
2.42654e-06
3.6828e-06
2.96709e-06
2.81213e-06
3.75103e-06
3.26815e-06
2.98185e-06
2.156e-06
2.94163e-06
2.61665e-06
2.68148e-06
3.19358e-06
2.71398e-06
2.91932e-06
3.15771e-06
3.03754e-06
3.1505e-06
2.90631e-06
2.88516e-06
2.62985e-06
2.91467e-06
2.69749e-06
4.89749e-06
2.45143e-06
3.44675e-06
3.49919e-06
3.29618e-06
2.04215e-06
2.66982e-06
2.16299e-06
2.81453e-06
2.9842e-06
2.82118e-06
2.64586e-06
2.45615e-06
3.71062e-06
2.71028e-06
2.78827e-06
2.82164e-06
3.1274e-06
2.57511e-06
2.66917e-06
3.62518e-06
2.71706e-06
2.20385e-06
3.33351e-06
3.16374e-06
2.78249e-06
2.67387e-06
3.2112e-06
3.19851e-06
3.83302e-06
2.22106e-06
5.02324e-06
3.02318e-06
2.26502e-06
2.22877e-06
2.49128e-06
3.11504e-06
2.40539e-06
3.36436e-06
2.22252e-06
3.06162e-06
2.73853e-06
2.18814e-06
2.86567e-06
3.19362e-06
3.08775e-06
2.51036e-06
2.46935e-06
2.68632e-06
2.36029e-06
2.997e-06
3.33714e-06
1.98286e-06
1.66662e-06
2.62371e-06
2.62737e-06
3.27703e-06
2.20978e-06
2.92721e-06
1.34828e-06
3.29411e-06
2.582e-06
2.63055e-06
2.66651e-06
3.26925e-06
3.52318e-06
2.09122e-06
2.00401e-06
3.99962e-06
1.87348e-06
3.42388e-06
2.56113e-06
3.32086e-06
1.68319e-06
3.19573e-06
2.92846e-06
1.58324e-06
2.53809e-06
2.15009e-06
1.88332e-06
2.12588e-06
3.16654e-06
2.8475e-06
2.74889e-06
3.11776e-06
2.01786e-06
1.86583e-06
1.66474e-06
1.9364e-06
2.57339e-06
2.08882e-06
2.22923e-06
1.89045e-06
2.4644e-06
2.61929e-06
2.48867e-06
3.01904e-06
3.05636e-06
2.64977e-06
2.42143e-06
2.63113e-06
2.79479e-06
3.04493e-06
1.66113e-06
2.36705e-06
3.17827e-06
2.30875e-06
2.58208e-06
2.4414e-06
2.63424e-06
2.22591e-06
1.6161e-06
2.4265e-06
2.51489e-06
2.39427e-06
2.39034e-06
2.78043e-06
2.87086e-06
3.26213e-06
3.34819e-06
1.71522e-06
1.7123e-06
2.24321e-06
2.31634e-06
2.09031e-06
1.68069e-06
1.80383e-06
1.22913e-06
1.42301e-06
2.34963e-06
3.17645e-06
2.61015e-06
2.30703e-06
1.38786e-06
1.58004e-06
2.18416e-06
1.52576e-06
2.91689e-06
2.94877e-06
3.27399e-06
2.20349e-06
1.87767e-06
2.72411e-06
1.43195e-06
2.12691e-06
1.57319e-06
2.52858e-06
2.17169e-06
1.24319e-06
1.92686e-06
2.14869e-06
1.99746e-06
1.94619e-06
1.72988e-06
1.26296e-06
2.28093e-06
1.27271e-06
2.28562e-06
2.57778e-06
1.79134e-06
2.16561e-06
2.05392e-06
1.94599e-06
1.44853e-06
2.26774e-06
2.58751e-06
2.08886e-06
1.84675e-06
2.24359e-06
2.01658e-06
1.87389e-06
2.30058e-06
1.61151e-06
2.51572e-06
2.5038e-06
2.07193e-06
2.6175e-06
1.31892e-06
1.47401e-06
2.23277e-06
1.97483e-06
2.43521e-06
1.66023e-06
2.45966e-06
1.4395e-06
2.43663e-06
2.0154e-06
1.77855e-06
2.71132e-06
2.30737e-06
2.20352e-06
2.60391e-06
1.94497e-06
1.64214e-06
2.8653e-06
2.43207e-06
2.02622e-06
2.31695e-06
1.90911e-06
2.03391e-06
2.16137e-06
1.86481e-06
1.95658e-06
2.21158e-06
1.78619e-06
2.28043e-06
2.73919e-06
1.72984e-06
2.5444e-06
1.75232e-06
1.59558e-06
1.62647e-06
2.24239e-06
1.85883e-06
1.67767e-06
2.14269e-06
1.69079e-06
2.10352e-06
1.41454e-06
1.44989e-06
1.84234e-06
1.84002e-06
1.75364e-06
1.82307e-06
1.46048e-06
1.38405e-06
1.60588e-06
1.50927e-06
1.96587e-06
2.36067e-06
1.96264e-06
1.06128e-06
1.27402e-06
2.03925e-06
1.46967e-06
1.61849e-06
1.7285e-06
2.00376e-06
1.51252e-06
1.68734e-06
1.24391e-06
1.30709e-06
1.55082e-06
1.25166e-06
2.38579e-06
1.87608e-06
1.19777e-06
1.11049e-06
1.53342e-06
1.66291e-06
1.69446e-06
1.55019e-06
1.31545e-06
2.23883e-06
1.75745e-06
1.52861e-06
1.234e-06
2.22543e-06
7.42398e-06
6.47031e-06
3.2104e-06
4.5178e-06
9.74384e-07
6.34833e-06
6.65353e-06
4.9122e-06
6.45482e-06
1.69105e-06
5.25553e-06
3.07723e-06
6.14805e-06
1.72168e-06
6.78479e-06
8.10127e-07
5.98832e-06
6.61025e-06
2.68738e-06
5.77512e-06
1.93592e-06
5.49256e-06
6.26535e-06
5.06564e-06
3.6363e-06
7.12524e-06
5.49472e-06
4.8751e-06
5.43365e-06
1.71605e-06
4.90836e-06
2.04453e-06
5.02784e-06
1.23266e-06
7.36769e-07
1.69156e-06
6.1529e-06
5.82597e-06
4.20205e-06
1.96097e-06
5.62829e-06
4.7918e-06
3.95093e-06
4.92736e-06
4.75721e-06
3.53562e-06
5.95674e-06
1.43609e-06
3.78106e-06
6.54143e-07
2.1544e-06
5.66833e-06
2.02605e-06
4.68782e-06
2.38142e-06
5.05732e-07
1.64194e-06
3.60874e-06
3.3381e-06
3.99688e-06
3.36848e-07
3.75157e-06
-1.24703e-07
2.28122e-06
1.788e-07
1.5459e-06
5.31913e-06
4.76645e-07
5.74952e-06
3.66346e-06
1.09427e-06
5.97836e-06
3.716e-06
5.23612e-06
5.41675e-06
5.37125e-06
5.29808e-06
6.309e-06
2.44003e-06
3.02607e-07
1.87858e-07
5.18612e-06
4.65432e-07
5.67937e-06
2.55931e-06
4.27489e-06
1.0159e-06
1.32621e-06
4.07173e-06
3.265e-06
3.2426e-06
4.5946e-07
4.99848e-06
2.43349e-06
4.10003e-06
3.52532e-06
1.75503e-06
3.17924e-06
3.97153e-06
1.22158e-06
5.03533e-06
4.24938e-06
3.7143e-06
4.06986e-06
5.54682e-06
4.59233e-06
2.47786e-07
5.08003e-06
4.66796e-06
7.88589e-07
1.40893e-06
6.45431e-06
5.2991e-06
1.55694e-06
4.99072e-06
2.12794e-06
4.78224e-06
5.25709e-06
1.87294e-06
1.564e-06
1.37686e-06
1.74793e-06
1.62459e-06
2.07676e-06
1.63468e-06
2.18477e-06
2.78183e-06
1.62488e-06
2.16649e-06
1.74241e-06
1.93696e-06
9.11311e-07
1.29698e-06
1.52005e-06
1.6016e-06
2.22753e-06
1.08388e-06
1.91375e-06
3.39483e-06
1.57033e-06
1.71739e-06
1.99366e-06
1.46495e-06
1.05214e-06
2.00944e-06
1.87311e-06
8.8093e-07
1.67356e-06
2.00249e-06
1.49302e-06
2.29239e-06
1.69291e-06
3.12332e-06
2.52555e-06
1.99738e-06
1.52355e-06
2.71463e-06
1.68268e-06
2.71248e-06
2.22558e-06
2.32599e-06
2.34376e-06
2.57797e-06
2.33271e-06
2.44186e-06
4.45165e-06
2.0888e-06
2.21415e-06
3.59457e-06
1.56748e-06
3.01445e-06
4.26779e-06
2.48823e-06
2.65521e-06
1.90001e-06
2.54544e-06
2.50221e-06
2.03515e-06
2.57153e-06
2.62147e-06
2.65699e-06
2.31438e-06
1.96933e-06
2.50199e-06
2.37282e-06
1.81164e-06
2.30638e-06
2.5401e-06
2.14017e-06
2.39868e-06
1.39885e-06
2.42341e-06
2.24775e-06
2.33088e-06
3.66907e-06
1.6543e-06
1.90372e-06
3.18319e-06
3.73661e-06
2.13261e-06
1.81333e-06
3.36144e-06
4.32245e-06
3.72595e-06
2.54128e-06
2.44574e-06
2.60329e-06
2.3446e-06
1.85531e-06
3.36586e-06
2.63582e-06
2.72971e-06
2.12596e-06
5.9479e-06
1.99178e-06
4.39056e-06
2.43084e-06
2.40754e-06
3.29125e-06
3.68859e-06
2.82161e-06
3.28997e-06
2.32413e-06
3.26176e-06
3.84226e-06
5.18451e-06
2.77858e-06
3.27977e-06
4.22368e-06
3.62547e-06
2.82449e-06
2.50331e-06
3.84612e-06
3.59029e-06
3.03574e-06
3.48134e-06
3.44462e-06
2.95663e-06
2.96541e-06
3.97221e-06
3.49809e-06
3.1815e-06
4.14552e-06
4.05091e-06
4.13253e-06
4.70244e-06
4.05355e-06
3.29672e-06
4.02453e-06
3.84119e-06
3.39027e-06
5.50724e-06
3.02701e-06
4.77873e-06
3.58429e-06
7.73372e-06
3.71322e-06
2.85339e-06
4.27145e-06
3.13649e-06
4.40594e-06
3.32711e-06
4.92398e-06
3.37805e-06
3.13894e-06
4.13151e-06
3.65209e-06
4.01723e-06
2.84247e-06
4.31277e-06
4.26034e-06
3.49475e-06
3.64438e-06
3.51303e-06
3.16745e-06
4.47966e-06
4.68455e-06
4.62748e-06
4.26198e-06
4.1526e-06
2.91928e-06
3.26898e-06
3.13751e-06
3.29118e-06
3.27052e-06
4.35366e-06
4.30663e-06
4.26988e-06
5.93584e-06
3.48399e-06
4.04164e-06
3.71443e-06
3.93852e-06
4.58498e-06
4.23502e-06
4.7292e-06
2.85829e-06
5.08691e-06
4.31937e-06
3.89447e-06
3.51325e-06
4.67978e-06
4.49083e-06
5.37826e-06
3.8404e-06
3.50849e-06
5.13489e-06
3.35915e-06
3.59044e-06
3.60754e-06
5.12595e-06
5.76471e-06
4.54407e-06
3.90453e-06
3.58455e-06
5.6892e-06
4.36169e-06
3.51477e-06
6.069e-06
3.7554e-06
3.64984e-06
5.19316e-06
5.00828e-06
4.4628e-06
3.99378e-06
3.82661e-06
4.18944e-06
3.71754e-06
5.24134e-06
4.58079e-06
3.97945e-06
4.69177e-06
4.07816e-06
4.47287e-06
5.07228e-06
4.09064e-06
4.93324e-06
3.83788e-06
4.16706e-06
5.03959e-06
4.40675e-06
4.72501e-06
2.32615e-06
4.90002e-06
4.39736e-06
3.58248e-06
4.18794e-06
4.1894e-06
5.60588e-06
3.997e-06
4.98672e-06
5.03422e-06
4.95529e-06
4.94182e-06
5.34619e-06
3.66539e-06
4.74941e-06
1.09224e-06
1.61895e-06
4.49211e-06
1.42312e-06
4.23257e-06
3.9523e-06
4.49977e-06
4.42368e-06
4.08908e-06
4.6144e-06
4.08607e-06
4.60571e-06
5.62306e-06
3.94571e-06
4.78203e-06
4.41114e-06
4.15623e-06
4.4755e-06
5.1917e-06
9.99743e-07
4.1867e-06
4.30766e-06
4.25237e-06
4.93796e-06
2.74895e-06
4.27255e-06
5.39019e-06
5.20663e-06
5.20312e-06
5.34847e-06
6.0686e-06
4.84862e-06
4.35991e-06
4.14862e-06
5.13218e-06
1.64659e-06
3.85261e-06
5.5313e-06
4.01956e-06
4.77008e-06
4.39187e-06
5.79243e-06
2.06399e-06
4.11121e-06
4.86482e-06
6.68367e-06
4.04031e-06
2.86897e-06
1.03952e-06
4.98056e-06
4.95298e-06
4.32859e-06
4.8756e-06
1.14786e-06
1.02611e-06
1.07037e-06
1.08362e-06
8.61777e-07
5.81772e-06
5.12088e-06
4.99097e-06
4.50792e-06
5.08489e-06
1.38014e-06
1.28805e-06
5.30888e-06
5.82472e-06
1.18416e-06
5.58834e-06
2.2217e-06
6.08441e-06
7.94014e-06
5.35519e-06
6.02763e-06
5.52847e-06
5.49973e-06
3.85841e-06
7.40661e-06
5.54146e-06
5.20948e-06
1.20558e-06
2.18422e-06
5.14939e-06
4.94958e-06
6.27618e-06
5.71907e-06
6.0113e-06
1.23514e-06
1.42064e-06
5.21507e-06
6.96041e-06
7.32273e-06
6.34846e-06
9.93194e-06
1.45446e-06
7.4013e-06
1.02805e-06
4.8168e-06
7.69588e-06
4.79863e-06
9.21599e-07
1.16316e-06
7.39458e-06
1.37889e-06
7.72905e-06
7.24632e-06
7.17902e-06
2.58133e-06
1.57347e-06
8.06961e-06
6.06999e-06
9.8612e-07
6.1948e-06
5.34765e-06
4.87353e-06
5.65877e-06
9.79888e-06
2.56233e-06
7.22667e-06
2.38761e-06
6.747e-06
7.33333e-06
5.41399e-06
6.33685e-06
5.6064e-06
6.33517e-06
5.10041e-06
4.36318e-06
5.94107e-06
-4.66547e-08
5.94982e-06
1.5719e-06
3.608e-06
6.36427e-06
1.18848e-06
9.50011e-07
1.35737e-06
5.80062e-06
7.74632e-06
6.5435e-06
3.13346e-06
5.95986e-06
1.16103e-06
7.8129e-06
6.30938e-06
5.55705e-06
6.17011e-06
7.24291e-06
5.86302e-06
1.26358e-06
6.44531e-06
6.95289e-06
5.92975e-06
1.33226e-06
4.37447e-06
7.37377e-06
5.82103e-06
2.03439e-06
7.83932e-06
6.15851e-06
2.37489e-06
7.41477e-06
6.1996e-06
7.73894e-07
5.74019e-06
5.57115e-06
7.16261e-06
7.35473e-06
7.56509e-06
1.10912e-06
5.81613e-06
7.35783e-06
5.74313e-06
7.48653e-06
2.27852e-06
5.64867e-06
1.4765e-06
2.72174e-06
3.63473e-06
2.46172e-06
7.20767e-06
2.13181e-06
7.14447e-06
2.82316e-06
3.86235e-06
1.65765e-07
6.37635e-06
4.67736e-06
7.25704e-06
7.61881e-06
7.0864e-06
6.54877e-07
5.78599e-06
7.96235e-06
3.27669e-06
1.48328e-06
7.43921e-06
1.46364e-06
7.38395e-06
6.40157e-06
7.23615e-06
7.07016e-06
1.64937e-06
7.42742e-06
1.05299e-06
5.20474e-07
7.55696e-06
7.07066e-06
3.89221e-06
7.54543e-06
6.466e-06
6.82663e-07
6.23853e-06
7.49463e-06
6.60099e-06
7.74844e-06
4.89543e-06
1.22832e-06
5.23526e-06
1.12584e-06
7.54869e-06
7.46672e-06
4.41035e-06
1.73915e-06
7.08792e-07
7.05997e-06
5.03067e-06
4.15115e-06
6.92725e-06
7.28146e-06
5.72091e-06
1.2615e-06
7.7225e-06
6.2036e-06
1.14927e-06
6.53075e-06
1.49483e-06
7.33065e-06
7.58471e-06
5.98353e-06
7.56498e-06
2.36205e-06
6.33448e-06
2.29581e-06
6.49201e-06
5.90808e-06
7.43047e-06
4.78832e-06
7.21189e-06
7.503e-06
4.81847e-06
2.60552e-06
7.41932e-06
5.03615e-06
6.56154e-06
7.80668e-06
7.89649e-06
1.35427e-06
6.81003e-06
3.43248e-06
7.91797e-07
7.27721e-06
2.34128e-07
3.45233e-06
7.93879e-06
7.3012e-06
5.82281e-06
7.93298e-06
1.11238e-05
1.37061e-06
1.94484e-06
5.26102e-06
6.70434e-06
5.04222e-06
1.15212e-06
6.6343e-06
6.85175e-06
7.80365e-06
3.55284e-06
5.34752e-06
6.57869e-06
2.62009e-06
7.34097e-06
3.79157e-06
5.47463e-07
7.19655e-06
2.5667e-06
3.7623e-06
2.28998e-06
8.12131e-07
7.53425e-06
1.17319e-06
1.34066e-06
6.35819e-06
7.57983e-06
7.58726e-06
7.52864e-06
7.75265e-06
8.15971e-07
7.32882e-06
8.03967e-06
1.06686e-08
6.3719e-06
7.40358e-06
1.11362e-05
7.00334e-06
1.72191e-07
1.24647e-06
8.0756e-06
7.48299e-06
6.75988e-06
2.88164e-06
4.73004e-06
3.16082e-06
4.77282e-06
6.82183e-06
7.68066e-06
6.23982e-06
8.48313e-07
2.22721e-06
7.62491e-06
6.55514e-06
7.51319e-06
6.26098e-06
7.20581e-06
5.05537e-06
2.61786e-06
2.95951e-06
1.47529e-06
6.96122e-06
3.78688e-06
7.99983e-06
2.54172e-06
7.41057e-06
6.17465e-06
3.91031e-07
7.42902e-06
7.429e-06
1.70652e-05
2.86152e-06
7.53182e-06
7.4437e-06
5.49416e-06
2.22086e-06
5.5337e-06
4.7305e-06
9.86665e-06
1.42014e-06
6.02792e-06
1.70544e-06
7.26775e-06
6.96358e-06
7.60824e-06
5.59805e-06
7.47355e-06
7.2682e-06
4.5531e-06
7.49025e-06
5.70383e-06
6.076e-06
1.12066e-06
1.38717e-06
4.89093e-06
7.43964e-06
7.22117e-06
6.62491e-06
2.46117e-06
6.26983e-06
5.09247e-07
7.32956e-06
1.62905e-06
5.92149e-06
1.24768e-06
6.65509e-06
5.92839e-06
7.81407e-06
7.11646e-06
7.81107e-06
7.43855e-06
1.30247e-06
6.38942e-06
6.72614e-06
7.67917e-06
2.20386e-06
1.42102e-06
7.93912e-07
5.91095e-06
7.47764e-06
2.91845e-07
7.97394e-07
2.56499e-06
8.4031e-06
1.30899e-06
1.07839e-06
1.0194e-06
7.27212e-06
7.06491e-06
7.9642e-06
1.10716e-05
4.86283e-06
5.98704e-06
2.79515e-06
4.53446e-06
6.33607e-06
7.42687e-06
3.2741e-06
7.21904e-06
8.25173e-06
1.03212e-06
5.29302e-06
1.72213e-06
5.70081e-06
5.5494e-06
1.29907e-06
5.31471e-06
6.6629e-06
7.85762e-06
7.05327e-06
7.62649e-06
5.48899e-06
2.03354e-06
7.75272e-06
8.52472e-06
7.82168e-06
2.32997e-06
2.84809e-06