/*--------------------------------*- C++ -*----------------------------------*\
  =========                 |
  \\      /  F ield         | OpenFOAM: The Open Source CFD Toolbox
   \\    /   O peration     | Website:  https://openfoam.org
    \\  /    A nd           | Version:  8
     \\/     M anipulation  |
\*---------------------------------------------------------------------------*/
FoamFile
{
    version     2.0;
    format      ascii;
    class       surfaceScalarField;
    location    "0.2";
    object      phi;
}
// * * * * * * * * * * * * * * * * * * * * * * * * * * * * * * * * * * * * * //

dimensions      [0 3 -1 0 0 0 0];

internalField   nonuniform List<scalar> 
15173
(
5.95368e-09
-5.34486e-09
-8.43552e-11
-5.24462e-10
4.76168e-09
-1.93476e-10
9.23963e-11
-4.6606e-09
-5.92823e-11
4.81701e-09
-4.76701e-09
9.28526e-12
8.37905e-09
-6.77664e-11
3.17089e-10
-8.62838e-09
-5.3934e-09
5.66949e-09
-2.24467e-10
-5.16298e-11
5.79855e-10
-9.12429e-09
8.77124e-09
-2.26805e-10
-4.20352e-09
-9.11381e-10
1.17224e-09
3.94265e-09
4.7793e-09
-4.76248e-09
2.88682e-10
-3.05502e-10
-2.02124e-09
2.15121e-09
4.37969e-11
-1.73764e-10
5.07081e-10
-3.41297e-10
4.55634e-09
-4.72212e-09
4.98646e-09
-5.03924e-09
5.97774e-11
-6.99465e-12
6.24272e-09
-2.22793e-11
-2.6676e-10
-2.52302e-09
2.39461e-09
-1.88143e-09
2.00984e-09
5.05843e-09
-5.0851e-09
2.65896e-10
-2.39219e-10
-4.61699e-09
4.81342e-09
9.3272e-11
-2.89701e-10
4.54765e-09
-4.84941e-09
3.01766e-10
4.95586e-09
9.19612e-11
-6.13552e-11
-3.81741e-10
3.36029e-11
-4.26885e-09
1.03117e-09
-9.18473e-10
-1.12696e-10
-2.8933e-09
-9.85777e-10
1.43857e-09
2.44051e-09
2.04216e-09
-6.02817e-11
-2.10711e-09
1.25228e-10
-3.23966e-09
2.85771e-09
3.07652e-09
-2.69456e-09
-5.04753e-09
3.33324e-11
-2.50487e-11
5.42077e-09
6.91955e-10
-5.98369e-09
-1.29033e-10
6.98369e-09
1.74243e-10
-5.96082e-10
-6.56185e-09
-1.62294e-10
5.42731e-11
-5.97184e-11
1.67739e-10
5.71679e-09
-7.05021e-09
1.23774e-09
9.56755e-11
-2.08522e-09
3.55693e-09
-2.29162e-09
8.1991e-10
7.35135e-09
-5.67125e-09
6.15588e-10
-2.29569e-09
-2.18404e-10
3.34593e-10
8.26287e-09
-5.91334e-09
-4.87098e-09
7.52206e-09
3.26226e-09
5.65139e-09
5.10916e-10
-5.74665e-10
-5.58764e-09
7.55162e-09
2.39099e-09
-8.28433e-09
-1.65828e-09
7.13775e-10
-1.00447e-09
4.70347e-09
-4.41278e-09
4.66926e-09
1.0752e-10
-4.68078e-09
-9.59967e-11
5.60892e-09
8.36293e-10
-6.33491e-09
-1.10294e-10
4.74966e-09
-4.86546e-09
-8.70789e-11
2.02886e-10
-5.10784e-09
-6.76209e-09
3.22456e-09
8.64537e-09
-1.41185e-09
-8.58044e-09
8.1845e-09
1.80779e-09
-5.73123e-09
1.31807e-09
-4.23923e-10
4.83708e-09
4.87148e-09
-7.24179e-11
1.43551e-11
4.76207e-09
5.73548e-10
-4.33953e-10
-4.90166e-09
-6.41595e-09
6.38953e-09
-1.12157e-11
3.764e-11
4.77039e-09
2.29183e-12
-1.09996e-11
-1.83093e-09
1.42207e-10
-3.32517e-10
-3.53159e-09
1.92704e-10
-2.25651e-10
3.56454e-09
-7.80022e-11
8.89e-11
2.80799e-09
1.34989e-11
-3.65376e-09
8.32265e-10
-5.03756e-09
-6.28871e-11
5.04117e-09
-1.24469e-10
3.05486e-10
-2.77096e-10
9.60789e-11
-1.75745e-09
-2.43982e-09
1.67425e-09
4.71247e-09
9.84335e-11
-4.05123e-11
5.4387e-09
2.7153e-10
-5.20019e-09
-5.10042e-10
6.19718e-10
-5.79971e-09
5.60692e-09
-4.26934e-10
-7.97771e-09
1.88508e-09
6.42779e-09
-3.3516e-10
8.23512e-10
-7.45846e-10
7.28594e-11
-1.50526e-10
-9.55885e-10
9.81721e-10
-2.97501e-09
2.94917e-09
5.00706e-10
-5.20364e-09
7.18771e-10
3.98416e-09
-6.49563e-09
6.72384e-09
-4.08795e-10
1.80584e-10
-1.69767e-09
-7.39127e-10
1.80144e-09
6.35358e-10
6.35409e-09
-6.39621e-09
-3.03806e-11
7.25068e-11
-6.87989e-09
6.01769e-09
3.52032e-09
-2.65811e-09
-1.95597e-09
3.47551e-09
-3.39693e-09
1.87739e-09
3.63843e-09
4.93779e-09
-1.61209e-09
-6.96413e-09
-7.53938e-09
6.12901e-10
-5.1408e-11
6.97789e-09
3.38229e-11
6.54839e-09
-6.30314e-11
-6.51918e-09
6.31222e-09
-6.29773e-09
1.93307e-11
-7.40167e-11
-6.19459e-10
7.54119e-11
6.18064e-10
1.97785e-09
-7.89904e-10
-5.39146e-09
4.68536e-11
-3.8693e-11
6.34593e-09
2.72601e-09
-2.66274e-09
-2.22132e-09
2.15805e-09
4.94439e-09
-1.64344e-10
-4.89756e-09
1.17516e-10
2.36925e-10
8.30028e-10
6.62125e-09
-7.68821e-09
-1.66027e-09
8.73873e-10
-9.11273e-10
2.68188e-09
1.94977e-09
-1.90564e-09
-6.52992e-09
6.4326e-09
9.73227e-11
-7.98732e-12
-1.51571e-11
-6.39281e-09
-5.19424e-11
4.52592e-11
-1.79253e-10
-4.85789e-09
6.006e-10
4.43654e-09
-2.3684e-09
4.7849e-09
6.94018e-09
-3.1598e-09
-3.44631e-09
4.18178e-09
2.42433e-09
-7.03227e-09
7.21353e-09
-4.27132e-10
2.45877e-10
-9.72424e-10
6.37674e-10
-4.75035e-09
-3.58687e-09
4.30207e-09
3.62857e-09
-4.34377e-09
6.39122e-09
-6.07058e-09
-3.20637e-10
4.48127e-09
-1.6964e-10
-3.46002e-09
-8.51612e-10
2.09912e-09
3.82595e-09
-3.87181e-09
-2.05325e-09
-6.3069e-09
6.38385e-09
-1.2162e-10
4.46762e-11
-5.16971e-09
2.75033e-09
-2.48016e-09
4.89953e-09
1.76358e-09
-3.29204e-09
-5.59384e-10
2.08784e-09
1.74064e-09
-3.51452e-11
3.36662e-10
-4.86298e-09
4.88011e-09
1.73936e-11
-3.45268e-11
7.88317e-11
5.00118e-10
-9.66196e-11
-4.8233e-10
-6.28834e-09
-5.26599e-09
5.64099e-09
1.31518e-09
4.33403e-09
-4.06124e-09
-1.58796e-09
-4.73413e-09
2.70193e-09
-4.80003e-09
6.83223e-09
-1.92464e-10
6.34371e-10
-4.99542e-10
5.76354e-11
3.46115e-09
-3.98497e-09
-2.84541e-09
3.36923e-09
-3.26208e-09
3.2429e-09
2.40366e-09
-2.38449e-09
2.19989e-11
-6.55192e-09
4.99498e-09
2.08611e-09
-2.04687e-09
-5.03422e-09
5.75625e-09
-2.56692e-09
-3.7119e-09
5.22569e-10
4.71365e-09
1.55772e-09
-2.04612e-09
-4.22525e-09
7.84162e-09
1.50949e-09
-7.08619e-09
-2.26492e-09
2.97398e-09
2.94717e-10
-5.30996e-10
-2.7377e-09
9.04513e-09
-8.80821e-09
-4.30146e-10
7.2669e-11
4.36309e-10
-2.68888e-09
-2.3477e-09
2.37384e-09
5.00296e-09
-4.02772e-09
-4.46854e-09
3.49331e-09
-4.52603e-09
4.43142e-09
1.6734e-10
-7.27267e-11
5.32695e-09
-4.857e-09
4.54241e-09
-5.01236e-09
-2.0318e-09
1.82662e-09
4.51117e-09
-4.30599e-09
-7.08313e-09
-2.69747e-09
2.9007e-09
4.70439e-09
-9.857e-11
-2.59514e-11
-4.57986e-09
2.8159e-09
-4.98205e-10
1.26815e-09
-3.58584e-09
5.59009e-09
-7.55188e-10
7.27945e-10
-5.56284e-09
-5.56895e-09
-2.55707e-09
2.95632e-09
-6.34058e-09
6.28646e-12
6.35715e-09
-2.2856e-11
-1.86122e-10
9.07898e-10
2.25221e-09
-4.81383e-09
4.83259e-09
2.53368e-11
-4.40965e-11
-6.41597e-10
-4.79456e-09
4.27618e-11
-5.90702e-09
-4.35229e-10
5.588e-10
5.78345e-09
1.98142e-10
4.9377e-09
-3.97052e-10
-4.73879e-09
2.40565e-10
5.65975e-09
-5.82287e-09
-7.74493e-11
3.82286e-09
-3.30689e-09
-1.71078e-09
1.19481e-09
-3.12589e-09
-1.40154e-10
2.31016e-09
-4.92308e-09
-3.17789e-10
4.44496e-09
7.959e-10
-4.50828e-10
4.95932e-10
-3.91901e-09
3.8739e-09
-2.01836e-09
1.23478e-09
-4.06261e-09
4.84619e-09
1.01142e-09
-8.84634e-09
8.41477e-09
-4.85158e-09
2.69943e-11
-3.83987e-11
3.20789e-09
-2.52731e-09
1.75545e-09
-2.43602e-09
1.6234e-09
-1.11558e-09
-3.50568e-09
2.99786e-09
-5.64812e-09
-7.2564e-10
5.73216e-09
-4.62142e-09
-1.40291e-10
3.87063e-11
4.723e-09
4.63819e-09
2.06702e-10
-9.5232e-11
9.63259e-09
5.39891e-10
-9.06392e-09
-1.10856e-09
-2.16648e-09
-3.6754e-09
3.94927e-09
1.89261e-09
6.86453e-11
-6.26287e-11
-6.29516e-09
2.50648e-11
-3.68062e-11
2.99157e-09
3.01156e-09
-2.18028e-09
-6.94587e-10
6.33611e-10
-4.26301e-09
4.32399e-09
-4.57616e-09
3.70954e-09
-5.36943e-10
1.40356e-09
1.00665e-08
-5.7048e-09
-7.03122e-09
2.66954e-09
-6.69266e-11
5.223e-10
4.4745e-11
7.10812e-09
-2.16575e-09
1.71634e-09
-6.65871e-09
1.07039e-09
4.68996e-09
-9.9829e-10
-4.51869e-09
-1.62379e-10
5.96508e-11
5.35512e-09
-5.21148e-09
2.14396e-09
-2.2876e-09
-4.20207e-09
-5.18498e-10
4.26974e-09
5.50187e-09
-6.3415e-09
-2.16429e-10
1.05606e-09
-3.46946e-09
-2.91379e-09
2.70376e-09
3.67949e-09
4.76669e-09
-2.5762e-09
-3.40101e-09
1.21052e-09
-4.76867e-09
4.78039e-09
1.59327e-11
-2.76548e-11
6.26219e-09
-1.38402e-11
-6.91442e-12
-6.24144e-09
-4.57277e-09
4.58453e-09
-2.32538e-11
1.14894e-11
9.29033e-10
-1.79319e-09
-2.1439e-09
3.00806e-09
-6.25017e-10
2.55799e-09
1.27491e-09
-4.84374e-09
4.87088e-09
-2.45439e-13
-2.68934e-11
-5.13528e-09
5.27975e-09
-2.17734e-10
7.32623e-11
-1.0837e-09
3.64873e-09
-4.91979e-10
-2.07306e-09
-4.61814e-09
4.60563e-09
-3.11476e-11
4.36619e-11
2.47056e-09
6.71199e-09
-7.17083e-09
-2.01173e-09
-4.67337e-09
4.65171e-09
-3.32471e-11
5.49029e-11
-4.90312e-09
4.88057e-09
-1.71815e-11
3.97287e-11
4.77714e-09
1.77348e-10
-1.75196e-10
3.93724e-09
-4.04743e-09
-3.47668e-09
-1.19773e-10
-7.22166e-10
-8.66527e-09
6.83744e-10
-5.0309e-09
-3.94042e-10
4.74119e-09
-4.72591e-09
4.70503e-09
-3.16285e-11
5.25103e-11
-4.78681e-09
4.81814e-09
5.29883e-11
-8.4315e-11
-4.84422e-09
4.82649e-09
-2.23662e-11
4.00981e-11
-4.7304e-09
4.73526e-09
-2.66377e-11
2.17834e-11
2.84411e-09
-3.86443e-09
2.01049e-09
-9.90165e-10
-4.78934e-09
4.76888e-09
-2.96393e-11
5.00931e-11
-1.12726e-09
2.69032e-09
-2.64675e-09
-1.36488e-10
-6.63843e-09
6.77492e-09
-2.15799e-09
7.17443e-10
-6.42794e-10
2.08334e-09
-1.0775e-11
6.49633e-09
-6.48555e-09
-3.7907e-11
-1.00738e-10
6.38136e-09
-2.92529e-10
6.68375e-09
2.95139e-09
2.59479e-09
-2.68642e-09
-2.85977e-09
-1.79728e-09
9.23994e-10
-1.02417e-09
1.89745e-09
-4.65517e-11
1.98159e-11
-4.57652e-09
6.89579e-11
-1.20953e-10
4.62852e-09
3.08105e-09
-2.68089e-09
1.57165e-09
-1.97181e-09
-4.13336e-10
7.67714e-11
-9.35822e-11
-5.29289e-09
3.97459e-09
-7.135e-10
5.77471e-09
-5.76554e-09
-9.17163e-12
-3.65304e-09
3.67087e-09
1.74575e-09
4.95637e-09
4.31828e-11
-5.51637e-11
-2.61816e-10
-4.57931e-09
4.84113e-09
8.24104e-09
-5.71138e-09
-3.13203e-09
6.02366e-10
1.88623e-09
2.16637e-10
-3.23013e-09
-2.97788e-11
1.74393e-10
4.65751e-09
-4.80212e-09
-1.01639e-09
1.08829e-09
9.87767e-10
-1.05967e-09
-3.32983e-11
2.55742e-10
-1.73342e-11
-2.05109e-10
-1.37755e-09
-3.14995e-09
1.6342e-09
-6.26577e-09
2.47926e-11
-5.41896e-11
-4.43607e-09
-1.81017e-10
9.84009e-11
4.62578e-09
-6.688e-11
1.53566e-10
7.88249e-11
-1.9061e-10
5.51117e-11
-2.16726e-11
4.84668e-09
-1.80414e-10
1.55301e-10
-5.76862e-09
5.79374e-09
-2.87074e-10
-7.0208e-09
7.30787e-09
-8.87739e-10
8.70509e-10
-9.99164e-10
7.16808e-09
-7.83122e-10
3.38887e-10
6.24958e-10
-1.23507e-10
-1.89242e-09
1.39097e-09
7.81252e-11
1.74484e-10
-6.95737e-11
-1.83036e-10
-4.78615e-09
7.83523e-12
-3.5517e-11
2.6321e-09
-2.33965e-09
-5.68679e-09
5.39434e-09
1.70597e-10
-7.08515e-11
4.40017e-09
-3.98174e-09
-4.18438e-10
-1.29063e-09
7.07914e-10
7.56641e-09
-6.19223e-09
-4.5242e-11
6.2267e-09
-2.55811e-10
9.74274e-11
-4.27769e-09
-1.28511e-09
1.76687e-09
-5.05791e-09
-5.6393e-09
5.58709e-09
-1.28207e-10
2.02882e-11
1.81365e-11
-3.84247e-11
-6.4018e-09
9.03736e-10
6.11778e-09
-4.92997e-09
1.3405e-09
2.85972e-09
7.29743e-10
4.91583e-09
6.23693e-10
-4.02065e-09
-1.51887e-09
4.03151e-09
4.42461e-09
-4.89768e-09
9.66331e-12
-1.50937e-11
3.30134e-09
5.36072e-09
-5.20634e-09
-3.45571e-09
-6.02449e-09
-5.63986e-09
5.37601e-09
-7.66189e-09
2.03407e-09
-1.60179e-09
7.22962e-09
-1.90694e-11
6.35329e-09
-2.35017e-11
-3.30272e-12
3.48929e-09
5.04385e-09
-2.51545e-09
3.8627e-09
-4.46723e-11
-4.18452e-09
3.66496e-10
7.30361e-11
-1.33599e-10
-3.52772e-10
-2.03071e-10
2.81055e-11
-5.33199e-11
2.28286e-10
1.25822e-10
-5.02841e-09
5.01822e-09
-1.15628e-10
3.16938e-09
-2.80646e-09
3.16007e-09
-3.52299e-09
-6.18649e-09
-5.02119e-11
4.44677e-11
-4.72738e-09
-6.09578e-10
4.894e-09
4.4295e-10
1.70161e-09
-4.30043e-09
-1.77416e-09
4.37298e-09
-1.38356e-11
7.13709e-12
6.26889e-09
7.37388e-09
-6.43061e-09
-1.39539e-09
4.52117e-10
5.9807e-09
-5.89856e-09
7.31711e-11
4.4327e-09
-4.56067e-09
-3.21586e-11
1.60133e-10
1.82429e-10
6.17529e-09
-3.77025e-10
-4.32551e-09
-8.74921e-11
8.04148e-11
4.33259e-09
-4.25507e-09
1.94877e-09
3.76673e-09
-1.46043e-09
6.50851e-09
-1.2185e-11
-9.3321e-09
-1.94415e-10
8.41892e-09
1.10759e-09
-5.8158e-09
-4.4544e-09
5.16237e-09
-4.28148e-09
1.75641e-11
4.25771e-09
6.19907e-12
-2.22337e-10
4.78174e-09
-4.65697e-09
9.75598e-11
1.55546e-09
6.95942e-09
-8.27662e-09
-2.38272e-10
1.78621e-10
-1.54958e-10
2.49499e-11
-4.86128e-11
-1.66676e-11
5.79138e-09
6.14792e-09
-6.14204e-09
-4.43755e-11
3.84966e-11
-5.9994e-09
-7.71755e-11
6.07658e-09
5.68781e-09
-4.45147e-10
3.43356e-10
-5.58602e-09
4.01346e-09
-2.40671e-09
-3.77322e-09
2.43104e-11
-6.28781e-11
1.09379e-08
2.27516e-09
-5.37145e-09
4.57834e-09
-3.38381e-09
1.72353e-09
-2.91807e-09
5.94356e-09
1.09252e-09
-1.50506e-09
-5.53102e-09
-3.25691e-09
2.91402e-09
1.37755e-09
-1.03465e-09
3.84094e-10
-5.72256e-09
-5.03329e-10
5.84179e-09
-6.07046e-09
6.08407e-09
-4.59701e-11
3.23529e-11
5.8556e-09
-1.35305e-11
6.93375e-11
-5.91141e-09
-6.26753e-09
2.32236e-11
6.66475e-09
-4.20439e-10
8.13172e-10
-8.99724e-10
-8.01187e-10
-4.87169e-09
4.58299e-11
-1.83664e-11
-5.08888e-11
2.64381e-11
-4.17476e-09
1.33052e-09
4.54584e-09
-3.14856e-09
-2.59207e-09
3.66991e-09
2.07072e-09
-2.45508e-10
2.73414e-10
-2.7906e-11
2.53508e-09
-2.37831e-09
-2.84565e-09
-1.00738e-09
-4.7062e-09
2.28369e-11
5.69074e-09
-6.00473e-09
6.01857e-09
-3.18858e-11
1.80446e-11
2.87182e-09
-4.94487e-09
4.17217e-09
3.62356e-11
-5.77468e-09
5.75862e-09
-2.01809e-11
-4.9608e-09
1.2198e-10
4.96465e-09
-1.80716e-09
-3.49977e-09
1.3374e-09
3.96954e-09
5.06485e-09
-5.09463e-09
5.97266e-09
-5.99116e-09
-7.31848e-11
9.16841e-11
-6.11975e-09
-4.92553e-11
2.69631e-11
-4.28528e-11
2.38642e-11
1.46619e-09
-4.16892e-09
-2.22723e-09
-2.16314e-09
4.37968e-09
-1.2796e-09
1.28077e-09
1.08712e-09
-1.73307e-09
2.01527e-09
-3.07841e-09
2.79621e-09
2.4115e-11
-1.70054e-10
-4.84951e-09
4.99544e-09
-5.92749e-09
3.17149e-10
-2.59275e-10
5.86961e-09
-4.7474e-09
-1.64299e-13
-2.11089e-11
-1.32553e-10
2.35784e-11
-4.59829e-11
-5.12121e-09
5.4839e-09
2.28744e-09
-2.65014e-09
-2.9708e-09
-8.33583e-09
5.59525e-09
5.27946e-09
4.56743e-10
-2.34331e-10
4.18019e-09
-3.21289e-09
-1.40264e-09
4.35339e-10
7.00405e-10
6.13789e-09
-2.58273e-09
-4.25556e-09
-4.22616e-09
-5.08727e-11
2.04952e-11
4.25654e-09
-7.7622e-09
4.51355e-09
-4.00782e-09
7.25646e-09
2.18997e-09
-2.22616e-09
-4.44569e-09
4.48189e-09
5.84945e-09
-5.72526e-11
-5.80067e-09
8.47724e-12
-2.25213e-09
1.96516e-09
1.91043e-10
3.70447e-09
-3.81567e-11
-3.85736e-09
9.32678e-11
4.31212e-09
2.73152e-11
-5.23009e-12
-5.77274e-09
5.76448e-09
1.3486e-11
2.33813e-09
-3.29068e-09
1.63372e-09
-6.8117e-10
3.02547e-10
-3.98554e-09
4.12792e-09
-4.44925e-10
2.26316e-11
-4.46481e-11
-1.10537e-10
4.61505e-09
4.11223e-10
-7.58175e-10
-4.2681e-09
2.9861e-09
-2.63118e-09
-3.13345e-09
2.77853e-09
-4.67157e-09
8.25045e-11
4.20306e-09
3.86004e-10
2.74525e-09
-1.48013e-09
1.08333e-09
-2.34845e-09
-4.23157e-09
4.64738e-09
2.49134e-09
-6.32951e-09
-1.73078e-09
-1.63924e-09
2.28902e-09
2.91619e-09
-3.56597e-09
-2.28095e-09
-7.94195e-10
9.1716e-10
2.47999e-09
-2.79595e-09
-2.3523e-09
2.66826e-09
2.58108e-11
-1.69293e-11
5.04698e-09
-4.84884e-09
-2.06555e-09
-4.44519e-09
2.72893e-09
3.78181e-09
5.67763e-09
-5.6574e-09
-2.02321e-11
6.54052e-10
2.29927e-09
-1.76673e-09
-1.1866e-09
-2.02212e-09
6.33735e-10
2.04244e-09
-4.81834e-09
5.53517e-11
-2.63519e-11
-6.04343e-09
-5.00995e-11
2.30759e-11
2.91622e-09
5.51077e-10
-2.48558e-09
3.95929e-09
6.07137e-10
-3.86888e-09
-6.97544e-10
-5.50128e-10
1.10773e-09
-5.57606e-10
-1.43415e-09
-2.75131e-09
2.58434e-09
1.60113e-09
-5.05301e-09
4.63666e-09
2.20715e-10
1.95629e-10
2.15495e-10
1.58735e-09
-2.64496e-11
-1.7764e-09
-5.47229e-11
-4.91154e-09
4.96626e-09
2.30264e-11
-5.86991e-11
6.30505e-09
6.33987e-10
-1.56477e-10
-6.78256e-09
5.48269e-09
-6.45676e-09
4.19535e-09
-3.22127e-09
-1.37948e-09
5.98404e-09
-5.61194e-09
-1.40918e-09
-3.9563e-09
1.71243e-09
4.86774e-09
-2.96256e-10
-4.45858e-09
-1.12909e-10
4.12956e-09
1.64205e-11
1.35729e-11
-4.15956e-09
-1.10984e-09
7.85036e-10
-6.17904e-09
6.50384e-09
-1.40016e-09
-3.47188e-09
1.61512e-09
-3.25475e-09
1.57853e-09
3.01514e-09
-1.33891e-09
-3.66907e-11
-5.77086e-09
5.79554e-09
1.20106e-11
-4.71829e-10
1.47547e-09
-2.23178e-09
1.22814e-09
3.64537e-10
4.7048e-09
-4.27215e-09
-7.97188e-10
-3.52574e-09
1.95014e-09
-2.09979e-09
3.55626e-09
4.80422e-09
-3.16016e-09
-5.20032e-09
1.99157e-09
4.3147e-09
-1.96284e-09
-4.34343e-09
-3.91041e-09
5.99032e-09
1.61362e-09
-3.69354e-09
-2.22312e-09
2.31973e-09
2.88949e-09
7.74412e-09
-1.03582e-09
-6.82707e-09
1.18766e-10
-6.76487e-09
7.24695e-09
-1.97285e-09
1.49077e-09
5.74925e-09
-5.72872e-09
-2.57618e-11
-1.90888e-09
1.67925e-09
4.4512e-10
-2.56996e-09
2.44369e-09
-1.63119e-09
3.28309e-10
5.34026e-09
-5.66857e-09
-2.0376e-10
2.206e-10
-8.76925e-10
8.60085e-10
4.93059e-09
-4.07606e-09
-1.76591e-09
1.43809e-09
4.05508e-09
-5.19062e-09
-5.22832e-09
5.00072e-09
1.05973e-09
-8.32133e-10
-2.3941e-11
1.81871e-11
3.29485e-10
-1.70896e-09
-5.99566e-09
-2.30321e-11
1.39663e-11
2.03721e-09
-8.85395e-09
-8.45154e-10
2.33355e-09
-1.11665e-09
-1.2169e-09
-1.84961e-09
6.73949e-09
8.8644e-11
-4.97852e-09
2.53438e-09
3.58806e-09
-5.99701e-09
5.96183e-09
3.51845e-11
-1.43567e-09
-8.25048e-09
7.03978e-09
2.64638e-09
2.40671e-09
-2.59188e-09
3.15887e-09
-2.97369e-09
-5.90831e-09
2.59888e-11
5.88232e-09
-5.56006e-11
6.03964e-09
2.89964e-09
2.34575e-10
-3.13421e-09
-1.52487e-10
5.43413e-09
-5.77255e-10
-8.37027e-10
-7.53632e-09
7.2435e-09
1.12985e-09
2.50463e-11
-4.98771e-09
-2.43775e-11
4.98704e-09
2.42994e-09
-1.48496e-09
-9.44981e-10
-4.74982e-09
3.94519e-11
-2.0035e-11
4.52089e-09
-4.49827e-09
3.22214e-11
-5.48413e-11
-2.13836e-10
-5.12202e-09
3.63984e-10
4.97187e-09
8.20842e-09
-1.22013e-09
-4.75697e-09
4.83679e-09
-1.27531e-10
4.77143e-11
-3.16031e-09
-1.51048e-09
3.68502e-09
-4.37189e-09
-8.80234e-10
5.25212e-09
2.37226e-09
-3.02338e-09
3.89174e-09
-3.24062e-09
8.16824e-09
5.09333e-10
2.30067e-09
3.85249e-09
-3.3309e-09
-2.82225e-09
4.83289e-09
-4.95848e-09
-8.82499e-11
4.02529e-10
-1.04378e-09
1.44468e-09
-8.0343e-10
-1.87699e-09
-1.61618e-09
1.01725e-09
2.47592e-09
7.399e-09
-7.22475e-09
4.85335e-11
-1.04171e-10
4.86267e-10
-2.37257e-09
-7.60544e-10
2.64685e-09
2.27379e-10
2.42069e-09
-1.71903e-09
3.66812e-11
-9.50128e-11
1.93791e-10
-1.3546e-10
-3.30534e-09
3.63455e-09
-3.92597e-09
3.59676e-09
5.76051e-09
-1.41709e-11
-8.73138e-12
-5.7376e-09
-9.82014e-11
1.19805e-10
-2.16032e-11
-2.49108e-09
7.70599e-09
-7.81407e-09
2.59917e-09
-2.48662e-09
2.57221e-09
4.48815e-09
-4.57373e-09
3.38631e-11
4.95738e-09
-4.9662e-09
2.5681e-10
5.1187e-09
-9.60512e-11
-2.79118e-10
-2.06677e-09
1.87406e-09
-8.13389e-12
1.76361e-12
2.10017e-10
-2.03646e-10
-9.36604e-10
-7.13423e-09
5.20014e-11
-6.04902e-09
-3.24708e-11
5.6541e-09
4.81875e-11
-5.66981e-09
5.96873e-09
-4.06248e-11
7.33258e-12
-5.93544e-09
2.00546e-10
-5.71782e-09
5.79387e-09
-2.76603e-10
-2.04632e-09
6.59093e-10
-6.34892e-10
-2.92194e-09
1.65174e-09
-3.78281e-09
-2.41616e-09
8.21626e-09
-8.59477e-09
2.79466e-09
-5.78979e-09
-3.26997e-12
5.8293e-09
-1.28033e-09
1.64152e-10
2.53888e-09
-4.18427e-09
1.65172e-10
1.48022e-09
5.34516e-09
-1.47826e-09
-3.69161e-09
-1.753e-10
-1.18083e-09
-3.61084e-09
1.48478e-09
-5.23655e-11
1.95763e-11
7.02827e-11
-3.74934e-11
1.22876e-10
6.09952e-09
-6.02185e-09
2.57504e-11
-5.06146e-11
2.71941e-11
-1.90416e-11
1.66377e-11
-4.90605e-09
1.16003e-09
3.72937e-09
1.12312e-09
-2.04442e-09
-3.75027e-09
-4.13866e-12
1.01518e-12
-2.11296e-10
2.14419e-10
-1.51994e-09
-5.55973e-09
1.85135e-09
-2.9311e-09
1.07855e-09
-2.88253e-09
-7.41465e-11
-4.70726e-10
2.34794e-09
1.03681e-09
-5.78197e-09
5.13625e-09
2.09056e-09
-1.44484e-09
-3.64039e-09
9.47352e-10
5.07833e-09
-2.38529e-09
-2.98011e-09
-6.17798e-10
4.18178e-09
-5.83866e-10
-1.47942e-10
8.5507e-11
8.85947e-10
1.2822e-10
-8.7992e-10
3.79503e-11
7.1375e-10
-5.75468e-09
5.76719e-09
-4.92075e-11
3.49128e-10
-3.11965e-10
3.49098e-11
-7.20722e-11
-3.23822e-09
-6.55319e-09
9.64445e-10
8.82697e-09
-3.51602e-09
-5.50074e-09
5.75331e-09
3.26345e-09
2.84071e-09
2.14214e-10
-2.56866e-09
5.89524e-09
-4.3331e-09
1.71143e-09
-3.27358e-09
-5.68901e-09
1.77716e-11
-4.67004e-11
5.71794e-09
6.48393e-10
-7.22563e-10
2.02389e-10
-4.64851e-09
1.14451e-09
-1.77747e-10
3.68175e-09
1.25427e-09
-2.89424e-09
-8.07682e-10
2.44765e-09
-4.46406e-09
-6.10531e-09
6.65897e-09
-1.56579e-09
5.07622e-10
3.01419e-09
-1.95602e-09
3.93295e-11
-5.76551e-09
5.77818e-09
2.67291e-09
7.05336e-09
-7.90332e-09
-1.82294e-09
3.32076e-09
-7.8455e-10
3.80007e-10
-5.36041e-10
1.79468e-09
4.16213e-09
2.59214e-09
-1.21742e-09
4.30473e-09
-5.67945e-09
-5.88763e-09
5.89617e-09
6.01545e-11
-6.86922e-11
-4.97795e-09
4.99337e-09
-1.85251e-11
3.10494e-12
-1.19029e-10
1.0936e-10
1.8771e-10
-7.42654e-09
-8.21052e-09
3.12123e-09
1.11856e-09
-2.90456e-09
-1.85439e-09
5.01178e-09
-1.62108e-10
7.34794e-11
-4.92315e-09
3.73304e-09
-3.88816e-09
5.32325e-09
-5.16812e-09
-2.99513e-09
2.29395e-09
-2.06897e-09
2.77015e-09
5.32606e-09
2.29882e-09
-4.24876e-09
-3.37612e-09
-2.07633e-10
8.61715e-10
-8.57842e-10
-3.38219e-09
-3.58411e-09
3.47078e-09
3.49552e-09
1.82589e-10
1.41789e-09
-1.11655e-09
7.44279e-09
3.58559e-09
7.4508e-09
-5.3196e-09
-3.71155e-09
-3.22679e-09
3.55616e-09
1.19945e-08
-3.34447e-09
-5.09381e-09
2.58496e-09
-2.90966e-09
-3.47831e-09
3.80302e-09
-3.64065e-09
4.18544e-09
-2.59769e-09
2.0529e-09
-5.87649e-11
1.45595e-10
3.65391e-11
-1.23369e-10
-4.0715e-09
3.63034e-09
-3.46605e-09
3.90721e-09
-4.7676e-09
4.83806e-09
-7.04564e-11
-5.00691e-09
5.04388e-09
-6.48927e-11
2.79239e-11
1.36028e-09
4.3873e-10
-6.19156e-10
-1.17985e-09
8.75565e-11
-6.79469e-10
-1.53933e-10
3.76897e-09
-1.03333e-09
8.73668e-10
-3.6093e-09
-5.48616e-09
-1.24121e-10
5.35053e-09
2.59745e-10
-1.35623e-09
1.98558e-09
4.7158e-09
3.71659e-10
-3.30975e-10
6.97359e-10
-7.38043e-10
3.26519e-10
-1.64755e-11
3.55266e-09
-1.37671e-11
-4.74109e-09
7.45821e-12
7.28266e-10
7.12684e-09
-5.81789e-09
1.61985e-09
3.93384e-09
-3.65064e-09
-1.90304e-09
1.92475e-10
-1.52206e-09
-3.79162e-09
1.66301e-09
-2.04762e-09
-7.76333e-10
1.16095e-09
-3.98942e-09
3.70469e-09
-3.78677e-09
-4.04219e-09
4.13716e-09
3.80629e-09
-3.90126e-09
-1.78765e-11
-5.70491e-09
5.72279e-09
5.57808e-09
-1.73028e-09
2.94947e-09
-4.37603e-09
-1.12771e-09
2.55426e-09
4.69323e-09
8.02165e-11
-2.26024e-10
-4.54742e-09
-7.81382e-11
4.41859e-09
-4.47815e-09
1.37702e-10
-1.21093e-09
1.99104e-09
4.7147e-09
-5.49481e-09
2.56101e-10
8.90171e-10
-9.25673e-10
4.9354e-10
2.7991e-09
-9.25975e-10
1.19033e-09
-3.06346e-09
-1.28608e-09
6.71556e-09
-6.9189e-09
1.48942e-09
1.53981e-09
-8.156e-09
-1.76132e-09
-3.83181e-09
1.45611e-09
2.8442e-09
-2.57408e-09
2.40638e-09
-2.67649e-09
-9.78721e-12
1.55189e-11
-1.60781e-10
1.5505e-10
1.7546e-10
-9.79455e-11
1.56176e-09
3.93841e-10
-5.95323e-10
4.97044e-09
-4.97491e-09
-1.28913e-11
1.73687e-11
6.51265e-09
-5.47337e-09
1.39066e-09
4.90699e-09
-7.41723e-11
1.23549e-10
-4.98936e-09
-3.04866e-11
3.21332e-11
-2.66279e-12
-4.85614e-12
2.37214e-09
1.87886e-13
3.0986e-11
-2.40331e-09
6.24323e-09
-2.90166e-09
-3.34157e-09
4.87215e-09
-4.46093e-09
1.97159e-09
-2.02143e-09
7.67275e-10
-6.82343e-09
-1.37378e-09
7.1878e-09
1.00941e-09
-3.18602e-11
-5.68477e-09
2.76161e-11
5.71364e-09
-3.6014e-11
-5.07243e-09
-9.83931e-10
1.65837e-09
4.39799e-09
-5.94078e-09
1.04586e-10
4.0006e-10
4.13202e-09
-8.15289e-09
2.04888e-09
6.10401e-09
4.98839e-11
3.17634e-09
-1.8806e-09
-1.34563e-09
6.14768e-09
5.551e-09
-8.17837e-09
1.96708e-09
4.51755e-09
-1.48168e-09
-3.95144e-09
-8.18757e-10
4.07561e-09
-6.61617e-09
5.60715e-09
1.05717e-11
-3.74999e-11
-1.85803e-09
-3.70883e-09
3.86923e-09
1.69764e-09
3.68832e-09
-5.0811e-09
-2.49546e-11
5.56242e-09
4.33984e-11
-5.58086e-09
1.84113e-09
-3.24671e-09
-1.58955e-09
-4.07034e-09
3.37577e-09
2.33203e-09
-1.63745e-09
-4.62672e-09
4.72793e-09
-1.86075e-09
1.75955e-09
1.42933e-10
-8.12873e-11
-1.2161e-10
5.99642e-11
9.67445e-10
-8.03418e-10
-4.38429e-09
1.27145e-10
-2.43312e-11
-1.21253e-09
3.85052e-10
1.26621e-09
-4.00438e-09
2.78438e-09
4.09182e-09
6.8696e-10
6.18041e-10
-1.85513e-09
-2.39689e-09
2.6939e-09
-2.97011e-10
-6.86688e-10
3.31902e-11
-2.26423e-10
5.49894e-09
5.5665e-11
-5.52856e-09
-2.6046e-11
-3.21345e-09
3.15762e-09
-2.34155e-09
2.39738e-09
4.82665e-09
1.55062e-10
-7.47187e-11
7.15494e-10
2.50397e-09
-1.47882e-09
-1.40825e-11
5.4799e-09
3.31182e-11
-6.12922e-10
-4.62955e-09
-1.08032e-10
4.5685e-11
4.6919e-09
-3.82564e-09
-2.56793e-09
1.03453e-09
5.35905e-09
6.35677e-09
-8.47225e-10
4.48605e-09
-1.03744e-11
3.55114e-11
-4.51119e-09
1.41394e-11
6.61437e-09
-6.55002e-09
-7.8483e-11
3.48472e-11
-1.57809e-11
-7.38316e-10
2.49514e-09
-2.20036e-09
4.4354e-10
-6.1832e-09
6.11409e-09
-8.37603e-11
1.52872e-10
3.83455e-09
5.23079e-09
-4.75823e-09
-4.3071e-09
1.09866e-10
-3.27118e-09
3.2237e-09
-6.2386e-11
-3.33845e-09
2.44875e-09
-2.09041e-09
-8.18817e-11
1.29013e-10
5.97287e-10
-4.97537e-09
1.29318e-10
3.61781e-09
-3.95831e-09
1.44823e-09
7.56166e-10
-6.97747e-10
3.43349e-10
-4.01769e-10
-5.07657e-09
3.04965e-10
4.62271e-09
-3.4138e-09
5.11712e-11
-5.78106e-09
5.78555e-09
-6.43587e-09
6.27056e-09
3.12469e-10
-1.47165e-10
-7.62877e-11
4.70937e-09
1.99808e-10
7.99247e-09
-8.33564e-09
1.31731e-10
2.11436e-10
-4.97847e-09
-1.19493e-11
1.55095e-11
-1.95955e-11
2.16814e-10
2.17492e-09
-1.66383e-09
-6.60641e-09
5.55896e-09
-5.54159e-09
-1.7375e-11
-2.96469e-09
3.17992e-09
-3.13717e-09
-6.07942e-09
6.03704e-09
-5.80784e-11
1.00454e-10
2.85894e-09
7.17463e-09
-5.88629e-09
-4.14727e-09
-4.65686e-09
-4.31235e-11
-9.98718e-12
4.70997e-09
-5.99266e-09
-1.98692e-09
-5.50581e-11
8.03463e-09
5.88599e-09
-7.57544e-10
-5.12845e-09
-2.11438e-10
-5.78797e-09
-5.12431e-09
3.75626e-10
2.47151e-09
-3.94748e-09
-1.2918e-09
2.76777e-09
-9.0231e-09
-1.60358e-09
1.25372e-09
-5.87485e-09
-2.82385e-09
7.44498e-09
2.76059e-09
-4.67916e-10
-2.11725e-09
-1.75419e-10
6.90639e-09
-1.50243e-09
2.13777e-09
-7.54173e-09
2.31126e-10
-5.89759e-09
-8.91728e-09
6.96451e-09
3.77603e-09
-1.82325e-09
-9.82605e-10
2.82685e-10
9.56021e-10
-2.54704e-09
-6.99486e-09
2.45877e-09
3.13115e-09
-3.1845e-09
2.54911e-10
-2.0156e-10
-6.01864e-09
5.98576e-09
-4.40179e-11
7.68926e-11
-6.37035e-09
-3.42035e-09
3.02861e-09
9.39408e-10
4.99756e-09
-2.22743e-09
-3.96895e-10
3.48049e-09
-3.55433e-09
-4.7824e-10
-1.62243e-09
-1.00869e-09
-6.35673e-11
1.24291e-09
-1.7066e-10
5.64866e-09
-2.53654e-11
1.17044e-13
-5.62341e-09
2.48526e-09
-5.02967e-09
8.49327e-09
-5.94885e-09
-6.36517e-09
6.37304e-09
-4.57765e-11
-1.12981e-09
3.09753e-09
-1.91784e-09
4.83109e-09
-3.07646e-10
-1.17846e-09
1.16069e-09
3.2541e-10
-9.13226e-09
6.95664e-09
7.39949e-10
3.78805e-09
-2.50193e-09
-4.59146e-09
5.80841e-10
-5.0066e-10
2.49139e-10
-3.29319e-10
-1.94141e-09
-5.9906e-09
6.26818e-09
-6.55581e-09
7.06229e-09
9.86565e-10
-4.17807e-10
-7.63105e-09
5.94092e-09
-5.97201e-09
-3.23913e-11
6.34865e-11
4.50914e-09
-8.82181e-11
1.70957e-10
-4.59188e-09
-7.06611e-11
-4.69694e-09
2.86729e-09
2.0247e-10
-4.08716e-10
-2.66105e-09
9.99242e-10
1.44207e-09
3.19273e-10
7.29567e-11
-1.49721e-10
-4.68021e-09
6.97502e-09
-4.5439e-09
-3.54096e-09
4.40314e-09
-3.87053e-09
2.76873e-09
-5.65792e-09
-6.26807e-11
5.68874e-09
-6.22947e-09
6.24827e-09
-5.94193e-11
-2.19552e-10
-8.77924e-10
8.87897e-11
-5.59718e-09
1.4511e-11
-3.08063e-11
5.61348e-09
5.83578e-09
-5.86073e-09
-4.01067e-09
3.34868e-09
3.13349e-09
2.99848e-11
6.58963e-10
-4.05541e-11
8.94658e-09
-9.21954e-09
9.71281e-10
-6.98323e-10
-4.92642e-09
4.84828e-09
-2.88749e-09
2.3733e-09
1.50391e-09
-9.89716e-10
3.45211e-09
-3.27046e-09
1.67309e-09
-2.04329e-09
7.47792e-09
-7.5545e-09
-1.99008e-09
2.06666e-09
-1.05838e-08
-1.77672e-09
7.89645e-09
-3.00107e-09
-7.61197e-10
4.70385e-09
-9.4159e-10
5.11548e-09
-8.93626e-10
-1.86721e-09
-3.68342e-09
3.60333e-09
1.94731e-09
-4.36424e-09
-6.18565e-10
2.76607e-10
-3.6419e-10
-5.45328e-09
5.84031e-09
-5.65603e-11
-6.305e-09
6.37569e-09
3.50419e-09
-3.58116e-09
3.71151e-09
2.40447e-09
-2.91143e-09
3.13747e-09
-4.23042e-09
2.7542e-09
-3.80138e-10
-1.82299e-09
1.00805e-09
-1.69922e-09
1.69042e-09
-2.23106e-09
2.00524e-09
-2.3015e-09
3.30947e-09
-3.23524e-09
1.64618e-09
-1.72041e-09
1.62174e-09
-2.11199e-09
-3.45781e-09
3.94806e-09
-6.68136e-09
4.50713e-10
-2.05224e-10
4.96355e-09
-3.41419e-09
-1.78359e-09
2.34227e-10
5.04204e-09
-1.06836e-10
2.49941e-12
-4.62393e-10
6.02284e-09
-5.56045e-09
3.3949e-09
-4.77e-09
2.49821e-09
-5.56401e-09
5.58797e-09
1.87323e-11
-4.26967e-11
-1.05691e-09
-4.22791e-09
9.20581e-10
7.77013e-09
2.27826e-09
-2.07649e-09
-4.80896e-10
9.59202e-12
1.72198e-10
-8.64576e-12
-1.73144e-10
-1.41214e-10
1.51014e-09
-1.95779e-09
5.8886e-10
-2.15222e-09
1.7269e-09
3.17057e-09
7.57569e-09
-1.6897e-09
-2.09694e-09
2.56856e-09
-4.71623e-10
2.92933e-09
-2.91586e-09
-2.58754e-09
-7.03183e-10
-2.47727e-09
1.52571e-09
1.65474e-09
-2.18555e-11
1.49566e-11
-5.47041e-09
5.47731e-09
-1.87681e-11
-5.58733e-09
5.60609e-09
6.62417e-10
-2.81483e-10
2.64599e-09
1.31425e-09
-2.7956e-09
-1.16464e-09
2.07042e-09
-2.07948e-09
-4.45918e-09
2.57149e-09
-5.48763e-10
2.43646e-09
2.0788e-11
-3.43202e-11
4.80136e-10
-3.11346e-11
1.82926e-09
1.76723e-09
-9.64338e-10
-3.73056e-09
2.92767e-09
-6.80326e-09
6.74872e-09
-2.64292e-09
-1.78227e-10
2.79261e-09
-3.38477e-09
5.65308e-09
-5.06093e-09
-3.42851e-09
-3.49396e-10
4.01638e-09
-2.38473e-10
-1.73872e-09
-4.70594e-09
4.79921e-09
-2.2517e-09
2.74268e-09
-2.5354e-09
4.73244e-10
-8.28495e-11
4.03989e-09
-2.47089e-09
2.08355e-09
-3.65255e-09
4.04327e-09
-2.90525e-09
8.47574e-10
5.34075e-09
-2.38769e-09
-5.51013e-09
-3.59665e-09
4.93571e-09
-9.70166e-11
-1.24204e-09
-5.88019e-09
2.88311e-11
5.90116e-09
-4.98002e-11
3.51157e-10
-3.1262e-10
1.93245e-10
-2.31782e-10
6.52092e-09
-6.53476e-09
-2.83288e-10
1.18955e-09
-1.21391e-09
-5.73847e-09
5.71661e-09
-2.05602e-09
-4.70914e-09
1.69273e-09
-1.47517e-10
-8.23697e-10
-7.94607e-09
-5.81903e-09
6.0458e-09
4.35546e-12
2.621e-09
7.07912e-09
3.6636e-10
6.07703e-09
-3.31373e-09
3.16508e-09
-5.92838e-09
-7.18368e-09
6.5769e-09
3.0943e-09
-2.48752e-09
-4.93747e-11
5.14657e-10
4.99531e-11
4.98957e-09
-5.03952e-09
2.79593e-11
-5.8701e-11
-2.44807e-11
5.52707e-09
-5.50259e-09
-1.01095e-09
-3.93248e-09
9.91999e-10
-3.61259e-09
-2.69602e-09
4.35264e-09
-2.69109e-09
2.82071e-09
6.01965e-09
-6.14927e-09
2.83701e-09
9.76784e-10
-2.15079e-09
5.58003e-09
-5.94694e-09
5.97583e-09
1.99008e-09
-1.66059e-09
8.49433e-10
-6.08977e-10
-3.12795e-09
-2.38047e-10
5.46257e-09
-8.84258e-09
-9.99433e-10
8.43016e-09
-4.37586e-09
8.40634e-10
-1.19215e-09
1.25231e-09