/*--------------------------------*- C++ -*----------------------------------*\
  =========                 |
  \\      /  F ield         | OpenFOAM: The Open Source CFD Toolbox
   \\    /   O peration     | Website:  https://openfoam.org
    \\  /    A nd           | Version:  8
     \\/     M anipulation  |
\*---------------------------------------------------------------------------*/
FoamFile
{
    version     2.0;
    format      ascii;
    class       surfaceScalarField;
    location    "0.2";
    object      phi;
}
// * * * * * * * * * * * * * * * * * * * * * * * * * * * * * * * * * * * * * //

dimensions      [0 3 -1 0 0 0 0];

internalField   nonuniform List<scalar> 
8224
(
3.87568e-10
3.83704e-10
-5.81444e-10
-1.89828e-10
3.7319e-11
3.90414e-09
-2.30444e-10
-3.71102e-09
-4.36671e-10
-1.49038e-10
-2.00911e-10
7.8662e-10
-7.5103e-09
2.85217e-09
-2.5117e-09
7.16983e-09
4.00886e-09
-3.15924e-11
1.32651e-10
-4.10992e-09
4.09786e-09
-2.64436e-10
1.61864e-10
-3.99529e-09
-4.002e-09
-3.87978e-10
-1.16247e-10
4.50623e-09
-4.44524e-09
5.11203e-10
-1.13089e-10
4.04713e-09
4.07667e-09
-4.26545e-09
1.88779e-10
-2.78981e-09
-2.9336e-09
5.30103e-09
4.22376e-10
-6.96287e-10
-6.45211e-13
6.94358e-10
2.5742e-12
-5.67157e-10
-3.56065e-09
4.89425e-09
-7.66442e-10
-9.55414e-10
-1.57757e-10
1.93752e-09
-8.24346e-10
1.84949e-09
-8.46286e-10
-8.5218e-09
7.51859e-09
4.68476e-09
-4.32608e-09
-3.58675e-10
-4.56017e-09
4.57881e-09
2.83934e-11
-4.70302e-11
-4.03013e-09
4.76164e-10
8.20827e-11
3.47188e-09
5.23318e-09
-4.29785e-09
4.48401e-09
-5.41934e-09
2.40544e-09
-2.13133e-09
-4.01271e-09
3.73861e-09
-4.58206e-09
2.01916e-10
-6.50978e-11
-5.16841e-10
4.57468e-10
-4.95443e-10
5.54816e-10
-4.72429e-09
4.56399e-09
8.61534e-10
-7.01237e-10
-1.44727e-09
2.78019e-10
1.43795e-09
-2.68691e-10
-5.45602e-09
2.55147e-10
-7.54392e-11
5.27631e-09
4.66113e-09
-4.60445e-09
-8.6388e-10
8.07198e-10
-3.63349e-09
4.12222e-10
-1.73461e-10
3.39473e-09
-4.58292e-09
-6.14742e-10
4.73376e-10
-4.04401e-09
-1.47832e-10
5.82565e-11
4.13358e-09
1.5051e-10
3.96701e-09
-5.46158e-10
-3.57136e-09
2.69708e-09
-8.05283e-10
-5.82254e-09
3.93074e-09
-3.14625e-11
3.832e-11
-5.02252e-09
7.46897e-09
-5.91872e-10
-1.85458e-09
3.73642e-09
8.13961e-11
-2.04377e-10
-3.61344e-09
3.79118e-11
2.8775e-09
-3.36494e-09
4.49529e-10
2.62515e-10
4.02732e-10
-6.60639e-09
5.94114e-09
4.29805e-09
3.43495e-11
-1.01338e-12
-4.33138e-09
-1.07116e-11
-2.20378e-10
-5.33416e-09
5.56525e-09
4.41067e-09
-1.49115e-10
1.27195e-10
-4.38875e-09
5.03554e-09
-3.3223e-11
-5.73752e-09
7.35199e-10
-4.12714e-09
4.24151e-09
-2.17198e-10
1.02836e-10
-7.44064e-09
-4.07586e-09
6.60684e-09
4.90965e-09
4.55289e-09
3.61877e-10
-4.53101e-09
-3.83763e-10
-5.74355e-10
-5.20503e-09
4.38173e-09
1.39766e-09
3.91499e-09
-3.99458e-09
5.36417e-11
2.59455e-11
3.83099e-09
-4.21353e-09
-1.00331e-09
1.38584e-09
-3.88402e-09
3.86837e-09
9.2537e-11
-7.68784e-11
4.57571e-09
6.21606e-09
-5.28021e-09
-5.51157e-09
4.54346e-09
-4.48491e-09
-1.45575e-10
8.70252e-11
-4.12076e-09
5.03003e-09
3.23941e-10
-1.23321e-09
-1.02214e-08
-1.11149e-09
3.8982e-09
7.43466e-09
5.95778e-09
-6.22439e-09
2.66605e-10
-4.52214e-09
-7.85783e-11
4.05436e-11
3.90014e-09
-3.78707e-09
1.19977e-10
-2.33048e-10
-3.98333e-09
-8.46863e-09
2.40501e-09
1.0047e-08
-1.06433e-08
7.58927e-09
3.45566e-09
-4.01588e-10
4.25759e-12
-7.50631e-12
5.91367e-09
-7.77837e-09
1.8647e-09
5.27731e-11
-5.17601e-09
-2.20439e-10
5.34368e-09
-3.86213e-09
2.86968e-10
-1.22668e-10
3.69783e-09
4.58695e-09
3.25216e-11
-7.60101e-11
4.12911e-09
-4.02146e-09
1.04738e-10
-2.12384e-10
-4.33182e-09
4.32633e-09
-8.61487e-11
9.16408e-11
-4.53557e-09
2.34051e-10
4.84942e-10
3.81658e-09
-2.88516e-11
-3.64291e-11
4.16314e-09
-5.90071e-11
-2.77865e-10
-3.70714e-09
-5.62504e-10
4.77735e-09
1.67471e-09
-5.88956e-09
-4.7457e-09
4.3574e-09
4.77679e-09
-4.3885e-09
-5.7589e-09
7.86327e-09
2.76558e-09
-4.86995e-09
-4.15936e-09
4.13855e-09
1.41475e-11
6.65408e-12
-4.54081e-09
4.48345e-09
-8.89772e-11
1.46337e-10
3.60107e-09
-8.34102e-12
4.94915e-12
-3.59768e-09
-5.52645e-10
-3.99064e-09
7.14633e-10
3.82865e-09
5.67936e-09
-3.09544e-10
1.50726e-10
-5.52054e-09
-3.75482e-12
5.16015e-09
-1.4965e-11
-5.14143e-09
-9.5762e-09
6.62964e-09
-7.38069e-09
1.03273e-08
-2.46397e-09
2.68792e-09
-6.40791e-09
6.18397e-09
-2.74858e-10
-4.86405e-09
5.13891e-09
4.15118e-09
-6.62271e-10
-3.63225e-09
1.43336e-10
4.48291e-09
-4.40383e-09
1.78833e-12
-8.08688e-11
5.10237e-09
-5.03262e-09
2.47797e-10
-3.17546e-10
3.78728e-09
-3.47801e-09
-3.09909e-09
6.20534e-10
4.54798e-09
-4.59903e-09
-5.69478e-10
-3.15505e-09
5.04557e-09
3.51257e-09
-5.40309e-09
-4.04222e-09
-8.39799e-11
4.08467e-09
4.15293e-11
-3.98162e-09
4.06825e-09
-1.9312e-10
1.06495e-10
-8.76719e-09
4.59037e-10
2.21892e-09
6.08924e-09
-4.62041e-09
-9.88061e-10
5.04132e-09
3.55483e-09
4.83551e-12
-3.46311e-09
-9.65525e-11
-4.97121e-10
5.70736e-09
-1.07868e-10
4.97701e-09
-3.37715e-09
-6.76899e-09
5.16913e-09
-2.79048e-10
4.84689e-09
-5.13034e-09
-1.75514e-09
-4.89481e-09
3.43251e-09
3.21743e-09
-4.41123e-09
4.22288e-09
4.71178e-10
-2.82819e-10
-3.57609e-09
3.48141e-09
1.25674e-10
-3.09944e-11
1.39687e-09
-2.39482e-10
3.26599e-09
-4.42338e-09
-4.20542e-09
8.07876e-10
-2.63834e-10
3.66138e-09
2.95118e-09
-7.14484e-09
-1.55049e-09
5.74415e-09
-1.08387e-10
7.81401e-11
-5.84871e-09
-1.59003e-10
1.12741e-09
4.88031e-09
3.75592e-09
-4.55107e-10
2.11026e-10
-3.51184e-09
-4.0438e-09
-1.76644e-10
9.33032e-11
8.18826e-10
-4.5681e-10
4.19088e-09
5.49422e-09
1.04888e-10
-1.36873e-10
-5.46223e-09
-3.63432e-09
-6.58442e-10
1.72004e-10
1.26568e-10
-8.04246e-11
-3.9578e-09
-1.69425e-10
8.34193e-11
-3.95769e-09
2.08516e-10
-5.78213e-11
3.807e-09
-5.18773e-09
3.65073e-09
-2.32527e-09
3.86228e-09
-5.48913e-09
3.80093e-09
1.6882e-09
-2.97771e-09
3.83341e-09
-6.49878e-09
5.64307e-09
-4.77181e-09
4.96963e-09
4.25923e-09
-4.45704e-09
3.51814e-09
7.27182e-11
-9.42633e-11
-3.49659e-09
-3.92826e-09
-1.53116e-10
9.97567e-11
-1.5885e-09
4.02042e-09
-5.96579e-09
3.53386e-09
-6.52527e-10
-1.01607e-10
5.78472e-11
3.76781e-09
3.73386e-10
-4.23938e-09
9.8186e-11
2.82191e-09
2.50234e-09
-1.11423e-09
-4.21002e-09
-3.83611e-09
3.82314e-09
-3.59495e-12
1.65646e-11
1.04018e-09
1.02888e-09
-6.31257e-09
4.24351e-09
-8.28071e-09
2.68526e-09
7.44494e-09
-2.34858e-09
2.63402e-09
-4.58598e-09
4.30054e-09
-3.68301e-09
3.52567e-09
1.64206e-10
-6.86255e-12
-5.32467e-09
4.57861e-12
-1.94955e-10
5.51504e-09
1.67986e-10
-4.40712e-11
-3.8074e-09
3.68348e-09
-2.6904e-09
2.47428e-09
-2.02776e-09
2.24387e-09
9.32145e-11
-4.25155e-09
-3.22104e-10
4.48044e-09
-7.29614e-09
4.57057e-09
-2.52132e-10
1.36851e-10
-3.3418e-10
-3.72433e-09
3.92165e-09
-3.20652e-09
8.43496e-10
3.72929e-09
-1.36627e-09
-5.75048e-09
3.89847e-09
4.80318e-09
4.16321e-11
-3.73267e-09
3.69104e-09
-7.22459e-10
-4.09602e-09
1.19213e-09
3.62634e-09
-4.27515e-09
4.44409e-09
3.11854e-11
-2.00123e-10
-6.64822e-10
3.49389e-09
-2.72076e-09
-1.08302e-10
-3.78305e-09
-1.18218e-11
-4.12378e-11
6.18753e-10
-8.51405e-09
-5.9483e-11
1.41723e-10
-5.51927e-09
5.43703e-09
-5.14728e-09
4.82489e-09
-1.73712e-09
2.05951e-09
-9.6756e-12
3.65761e-09
-3.64793e-09
4.85849e-09
-1.77031e-10
6.07753e-11
-4.74224e-09
3.63133e-09
7.03017e-11
-1.21196e-10
-3.58043e-09
-1.35136e-09
8.31547e-10
4.0743e-09
-3.55448e-09
4.56769e-09
-8.70223e-09
7.129e-09
-2.99446e-09
-3.93561e-09
6.38338e-11
-8.60229e-11
3.8509e-09
-3.79444e-09
6.79627e-11
-1.24428e-10
4.44515e-09
-4.76423e-09
6.1124e-10
-2.92155e-10
-5.96175e-09
3.01801e-09
-3.14992e-09
6.09367e-09
-4.30685e-09
3.94549e-11
4.62907e-09
-3.61679e-10
-6.93408e-09
2.86632e-09
6.41551e-09
-2.34776e-09
3.75543e-09
-3.69919e-09
7.01147e-11
-1.26361e-10
7.98384e-10
-1.91747e-09
3.96203e-09
-2.84294e-09
-2.01947e-08
7.56988e-11
2.0119e-08
3.87216e-11
-3.76654e-09
3.75386e-09
-2.60449e-11
1.37782e-09
-6.74931e-09
-1.12475e-09
6.49623e-09
3.94673e-09
5.32774e-09
-4.04129e-09
5.02838e-09
-1.97751e-10
2.78575e-11
-1.71848e-10
-6.34912e-09
-9.72915e-10
7.49388e-09
-3.33342e-09
3.56087e-09
-1.01653e-10
-1.25802e-10
3.5983e-09
-1.63822e-10
-1.08665e-10
-3.32581e-09
1.69992e-11
-3.52018e-09
3.50318e-09
-2.17324e-10
4.24964e-10
4.23751e-09
-1.22795e-09
3.71198e-10
-4.33099e-09
-4.75994e-09
-5.81008e-09
4.60827e-09
-5.12261e-09
2.02642e-09
-2.05888e-10
3.30208e-09
9.80328e-11
4.903e-09
-4.63916e-09
-5.7173e-09
-1.046e-09
6.60289e-09
1.60418e-10
-2.16984e-10
-4.71554e-09
4.7555e-09
-4.26462e-09
4.40086e-09
-3.12162e-10
1.75916e-10
-9.99969e-11
6.0771e-11
5.22947e-09
-2.14021e-09
2.15407e-09
-5.24333e-09
-3.55971e-09
3.53437e-09
-8.322e-11
1.08557e-10
4.58755e-09
-6.61277e-10
-4.01214e-09
8.58685e-11
-1.53075e-10
7.57157e-11
-4.63016e-09
-1.27413e-08
-8.38931e-10
8.09342e-09
-9.84689e-09
-9.81337e-09
1.15668e-08
2.19816e-09
5.1493e-09
-3.56018e-09
-8.6725e-09
6.86414e-09
9.90178e-09
-4.89631e-09
5.88338e-10
4.30797e-09
3.34127e-09
-1.76377e-09
6.86354e-10
-2.26384e-09
4.47956e-09
-3.68756e-09
-1.59719e-09
8.05188e-10
-6.93967e-09
-1.00472e-09
9.33882e-10
7.01051e-09
-4.26939e-09
4.46165e-09
6.25365e-09
-6.44591e-09
-7.62551e-09
-2.16497e-09
7.32651e-09
1.38579e-10
3.35393e-10
-6.10052e-09
5.62655e-09
-7.21715e-09
-4.80507e-09
1.80085e-09
-3.82061e-09
3.72944e-09
1.14649e-10
-2.34728e-11
-3.79393e-09
3.99322e-11
-2.9052e-11
2.00779e-09
-1.2167e-08
1.13189e-08
-1.15968e-09
-5.02029e-09
4.9851e-09
-2.2187e-10
2.57055e-10
-2.44919e-10
-1.51304e-11
-3.00826e-09
-8.44401e-09
8.25575e-09
3.19652e-09
3.58194e-09
4.24147e-09
-5.12633e-09
3.98292e-09
-3.90197e-09
-1.55409e-10
7.44664e-11
3.42453e-09
4.16133e-09
-3.67087e-09
3.68926e-09
6.44989e-10
-9.92986e-10
-4.54085e-09
3.56834e-09
-2.55439e-10
4.02759e-09
-3.82197e-09
1.86475e-10
-3.92097e-10
-4.16435e-09
4.09094e-09
-1.34166e-10
2.07578e-10
5.55752e-09
-3.3804e-10
-5.36578e-09
1.46299e-10
-7.9007e-09
5.78644e-09
-3.63622e-09
-5.35145e-09
-3.46535e-09
2.67393e-09
6.14288e-09
-6.28954e-09
1.12547e-09
5.3765e-09
-2.12428e-10
-3.81904e-09
-1.66456e-10
-9.08833e-12
-4.12491e-09
-2.96244e-10
1.1431e-10
7.92573e-10
-4.4545e-09
4.08285e-09
-4.20923e-10
-4.85481e-09
-1.8626e-09
2.28451e-09
4.43291e-09
-4.36055e-09
5.33512e-10
-3.50924e-11
4.62285e-10
-4.42468e-09
4.28739e-09
-6.0776e-10
7.62887e-11
-3.94597e-09
3.92531e-09
-4.30948e-09
4.33014e-09
-2.33148e-10
9.06155e-10
-4.61898e-09
-7.95403e-09
-2.98369e-09
7.92946e-09
4.67528e-09
-4.80917e-09
1.33898e-10
2.97078e-09
-7.55792e-09
-2.34694e-09
3.82377e-09
-2.1615e-10
-3.5689e-09
-4.01792e-09
-1.10232e-10
4.02937e-09
9.87871e-11
1.29957e-08
-1.56392e-08
-8.5625e-09
1.1206e-08
-4.80866e-09
-1.14818e-09
5.68199e-09
-1.40078e-09
5.33402e-09
-5.48304e-10
-5.11356e-09
-9.02279e-10
6.56414e-09
-1.17719e-09
2.77691e-10
-3.30592e-09
-4.4183e-10
-1.43728e-10
6.87171e-11
-3.9011e-09
5.67388e-11
-3.96594e-11
2.83635e-09
-4.18053e-09
-5.00188e-09
6.34606e-09
3.15656e-11
-4.44777e-09
4.4162e-09
-7.70855e-09
3.63918e-09
5.10955e-09
-5.94457e-09
-1.54659e-08
6.69017e-09
1.47203e-08
1.32628e-10
4.54265e-09
3.77505e-09
-3.42845e-09
1.94561e-10
-5.41164e-10
3.95054e-09
-3.93036e-09
-3.03297e-09
3.01278e-09
1.29463e-08
-1.39635e-08
7.55184e-09
-6.53464e-09
-1.22763e-10
6.34627e-11
1.2638e-09
1.28082e-08
-1.3464e-08
-6.07976e-10
-1.09041e-09
-3.19875e-09
2.59039e-10
3.84332e-09
-3.76565e-09
-1.37889e-10
6.02142e-11
6.57075e-09
-5.64432e-09
-4.278e-09
3.35157e-09
1.16479e-10
-4.20436e-11
-1.5406e-09
4.60685e-10
-4.7688e-09
-3.94072e-09
7.21738e-10
4.01737e-09
-5.63758e-09
4.69303e-10
-1.41023e-10
5.3093e-09
-4.39928e-09
1.43547e-10
-7.6087e-11
4.08277e-09
-4.57591e-09
-2.52995e-10
7.46136e-10
-4.00293e-09
-1.57551e-09
4.03714e-09
1.5413e-09
-9.19892e-10
-4.61894e-09
4.55054e-09
9.88291e-10
5.75639e-09
3.13683e-10
-9.77083e-10
-5.09299e-09
-4.54546e-09
9.99571e-10
-1.16946e-09
4.71534e-09
-5.1963e-09
6.39137e-09
-1.19507e-09
-5.04203e-09
-3.97041e-09
3.31673e-09
5.6957e-09
-3.7608e-09
4.36167e-10
-4.41904e-10
2.39443e-10
-3.85561e-09
-6.68463e-11
1.45384e-09
-5.40498e-09
-5.89705e-10
3.4846e-09
-1.20993e-10
-3.40587e-09
4.22557e-11
-4.09148e-09
-7.64514e-10
1.37192e-09
3.48408e-09
-7.15726e-11
-7.09044e-12
4.62949e-09
-4.00664e-09
2.8566e-09
-3.47945e-09
3.83777e-10
-1.19557e-10
4.03383e-09
-1.04452e-08
3.02719e-09
7.7354e-09
-3.17376e-10
3.66077e-09
-1.05142e-10
-3.60255e-09
4.69277e-11
1.01017e-09
-9.71519e-09
7.85874e-09
5.12346e-09
2.02012e-10
-5.34916e-10
-4.79055e-09
-4.69229e-09
-3.415e-10
6.08589e-10
4.4252e-09
-3.24548e-09
-5.54934e-09
6.52574e-09
2.26907e-09
-7.42087e-09
-8.98137e-09
-3.61475e-09
-3.11647e-11
6.98252e-11
-1.88183e-08
1.62126e-08
-3.33884e-09
-4.16666e-09
-2.26963e-10
1.29003e-10
3.34577e-09
-3.48108e-09
1.66023e-09
-1.52492e-09
7.82572e-10
-1.09979e-09
6.11445e-09
-5.79723e-09
3.14199e-11
-9.70177e-11
3.80202e-09
2.43818e-09
-4.64392e-09
-6.56146e-09
-8.85e-09
-3.54066e-09
7.7605e-09
-3.91271e-09
3.41808e-10
3.5709e-09
-4.64042e-09
4.6821e-09
1.79795e-10
-2.21478e-10
-2.24178e-10
1.29226e-09
3.96194e-09
-5.22478e-11
-3.56225e-09
5.47863e-11
-4.60946e-09
-2.3157e-10
2.00615e-10
-5.82689e-09
6.00001e-09
-7.61376e-09
1.60644e-10
-7.64796e-11
-1.15252e-10
1.52983e-10
5.04953e-09
-5.08726e-09
-8.20525e-09
-6.64985e-09
5.2789e-09
-3.82492e-10
-5.45213e-09
9.21495e-10
4.91313e-09
2.68723e-09
-4.33187e-09
3.0415e-09
-2.51796e-10
-3.84423e-09
7.10234e-10
3.38579e-09
-3.85552e-09
5.82096e-09
-5.21092e-09
-3.20995e-10
-4.36094e-09
4.68193e-09
-2.23562e-10
1.00281e-10
-3.18549e-10
8.1583e-09
1.57379e-09
-1.08436e-08
3.80382e-09
-2.57896e-09
-6.26688e-09
2.92959e-09
-1.68883e-09
3.42037e-09
-9.27534e-10
3.75131e-09
-5.05384e-09
4.11864e-09
2.93618e-10
6.41588e-10
6.10162e-09
4.38091e-09
-5.85303e-09
2.28729e-09
-6.40238e-10
-4.60262e-09
2.95556e-09
7.13018e-09
4.56024e-11
9.82522e-10
-4.31416e-09
4.28531e-09
-3.85878e-09
2.30951e-09
-7.99307e-10
2.02089e-09
-4.5411e-09
4.00084e-09
-1.48063e-09
-4.84395e-09
-3.73617e-10
4.80954e-09
4.08022e-10
-3.76204e-09
-4.02971e-11
5.99661e-11
3.74237e-09
5.04357e-09
-5.20257e-09
-4.21341e-09
1.67112e-09
5.17631e-09
-1.34553e-08
-8.15874e-09
7.97063e-09
1.36434e-08
-5.30353e-09
5.31349e-09
1.84382e-11
-2.83955e-11
-4.41755e-09
7.16826e-09
4.37795e-09
-7.12867e-09
1.38575e-09
-1.44216e-09
7.35449e-10
-5.57131e-10
-1.68308e-08
1.79126e-08
-6.45752e-09
5.3757e-09
-1.48578e-10
4.15392e-11
-1.33813e-08
1.34883e-08
2.33682e-09
6.058e-09
-5.33505e-09
-3.05977e-09
3.98817e-09
-1.0001e-09
7.33857e-10
-3.72193e-09
7.65678e-11
-1.35217e-10
-6.69906e-09
-7.7012e-09
6.72217e-09
7.67809e-09
-2.24388e-10
1.03068e-10
2.02747e-09
-1.05976e-09
2.60272e-09
-3.57042e-09
-3.76495e-09
4.0774e-11
-1.76927e-10
-2.27211e-09
6.10158e-09
1.4e-09
-4.02334e-10
3.70272e-10
-2.32886e-10
2.64948e-10
4.02094e-09
-5.02932e-09
3.84473e-09
-2.53087e-10
-4.59257e-09
4.27617e-09
-8.28501e-10
-3.83642e-09
4.00364e-09
-4.25862e-10
-4.4576e-09
-1.49159e-10
-1.80762e-08
-3.89121e-10
-1.5309e-10
1.86184e-08
-4.00462e-10
-5.32044e-09
-4.66532e-09
-3.48911e-09
3.44687e-09
-7.92522e-11
1.21488e-10
1.80499e-10
3.36619e-09
-6.5273e-11
-3.10995e-09
2.34068e-09
1.83113e-08
-1.7542e-08
-2.74196e-10
-3.4239e-09
1.12319e-09
2.57491e-09
1.79066e-09
-3.48345e-09
5.0007e-09
-3.3079e-09
-1.24847e-09
2.33762e-09
-5.9789e-09
4.88974e-09
-5.24578e-10
1.6405e-09
6.55275e-09
-2.3376e-09
-5.85565e-09
-5.03065e-09
2.85574e-09
-3.73284e-09
3.66772e-09
-4.67987e-11
1.11925e-10
-1.15492e-09
-4.2091e-09
5.4261e-10
4.82141e-09
4.06241e-09
2.57537e-09
-3.91809e-10
4.79575e-09
3.21277e-10
-4.72522e-09
4.26585e-09
-4.2315e-09
-2.59143e-10
-4.07791e-09
2.83258e-10
4.0538e-09
1.56629e-09
-4.52917e-09
1.94901e-10
-2.75191e-10
3.1069e-09
-5.65902e-10
2.80908e-10
3.77874e-09
-3.73994e-09
-3.8797e-11
1.63634e-11
5.13486e-09
-2.77697e-11
3.50821e-09
-3.4638e-09
4.39353e-12
-4.88036e-11
-4.87928e-09
4.17911e-09
-2.90381e-10
9.90557e-10
1.54196e-10
-3.63234e-10
-4.32013e-09
2.66265e-09
-1.2458e-09
-6.00283e-09
-4.57657e-09
-5.5425e-09
5.04848e-09
5.07059e-09
-4.10607e-09
1.29672e-10
-9.02889e-10
-4.4937e-09
4.39835e-09
1.92211e-10
-9.6862e-11
-1.26262e-08
1.35999e-08
-9.7372e-10
5.28559e-09
-6.61606e-09
9.04603e-10
-2.43588e-08
1.61114e-08
-1.19472e-08
7.90637e-10
-4.92031e-09
-7.22825e-11
4.20195e-09
1.22758e-08
-1.20206e-08
2.24368e-09
-2.49889e-09
-2.70784e-10
-4.95753e-09
3.42245e-10
4.88607e-09
3.93035e-09
-1.45664e-09
-3.80093e-09
1.32723e-09
4.33829e-09
-8.44048e-10
-5.41172e-09
1.06792e-09
-6.26649e-09
-1.26094e-10
2.27843e-10
-4.58892e-09
5.88011e-10
-8.12881e-10
-2.98165e-09
-4.66342e-09
-7.72699e-10
4.51622e-09
-4.65274e-10
-4.85015e-09
4.71478e-10
-1.26198e-10
-3.70018e-09
6.07306e-11
2.72037e-09
2.821e-09
-1.61606e-09
3.90051e-09
-4.42454e-09
-5.22975e-11
5.76332e-10
-1.25402e-10
3.72514e-09
-1.44422e-12
-4.32014e-09
3.88299e-09
3.64319e-10
7.28343e-11
4.33697e-09
-4.39598e-09
-4.86377e-09
1.84729e-09
-6.29405e-10
3.64589e-09
3.16141e-09
-3.56458e-09
2.15159e-10
1.88016e-10
6.68059e-09
-1.0594e-09
-5.62119e-09
5.07119e-09
3.41874e-09
-4.68611e-09
3.27757e-09
-2.89179e-09
2.01966e-09
-9.44153e-11
5.54128e-11
3.61264e-09
-3.96106e-09
-1.02756e-09
1.65111e-09
2.93131e-09
-3.55486e-09
-1.54038e-09
2.06677e-09
-2.46541e-09
1.93902e-09
7.52451e-10
-9.72112e-10
5.53288e-09
-5.31322e-09
3.48029e-11
-3.22753e-11
5.61667e-09
-5.8942e-09
-6.42153e-09
-1.34317e-09
4.2487e-09
1.0565e-09
-6.45428e-10
2.38484e-10
-6.15654e-11
4.68509e-10
-4.05819e-09
2.38322e-09
-8.01632e-11
-2.82891e-10
-4.33024e-09
-4.32202e-11
4.65635e-09
1.85323e-09
-4.17014e-09
6.21511e-09
3.8615e-09
-2.8936e-09
2.73667e-09
-3.70457e-09
3.85504e-09
-2.0313e-11
-1.36781e-09
-2.46692e-09
-2.54093e-09
2.48258e-10
-2.73821e-09
-3.87212e-09
5.7561e-09
8.5423e-10
-4.46013e-10
5.33529e-09
1.9631e-10
-5.08559e-09
7.65621e-10
-5.44415e-09
5.50801e-09
-8.29477e-10
3.2512e-09
-2.56073e-10
-5.83751e-09
-7.62511e-09
3.01739e-09
-3.65346e-10
6.88405e-12
-4.50531e-09
4.62755e-09
-4.49505e-09
-2.20019e-10
8.7513e-11
-2.32493e-10
-4.00682e-09
1.14404e-10
-4.57469e-09
-1.29511e-09
-6.80723e-09
-2.13952e-09
3.10925e-09
-5.50722e-10
4.20622e-09
2.91885e-10
-3.94739e-09
-5.48832e-10
4.78352e-09
-4.23469e-09
-3.82615e-09
3.68577e-09
5.21855e-10
-3.81479e-10
-5.61827e-10
-4.06533e-09
4.33092e-09
-3.90043e-09
-3.77297e-10
1.71662e-10
-1.80199e-10
5.33225e-09
-5.56613e-09
4.14082e-10
-5.84861e-09
4.12714e-09
-4.17242e-09
2.40178e-10
-1.94897e-10
-4.25312e-09
1.3447e-10
-2.9164e-11
4.14781e-09
-5.04061e-10
2.35807e-10
-3.74389e-09
-5.83119e-09
5.76179e-09
2.07979e-10
-1.96832e-12
3.78071e-09
-7.79346e-10
-1.19827e-11
7.90684e-10
-8.75891e-10
5.21777e-09
2.20485e-09
-6.54673e-09
1.17457e-10
-7.21913e-11
5.63607e-09
-5.37416e-11
-2.48097e-11
-7.95006e-09
2.10436e-09
-7.14118e-10
6.55982e-09
3.8024e-10
-2.67909e-10
-5.14665e-10
5.97179e-10
2.44151e-09
-2.93354e-09
-1.05152e-10
4.5715e-10
-3.67233e-10
-4.7822e-09
-4.6861e-09
-1.72295e-09
3.42274e-09
2.9863e-09
-4.4066e-10
2.92029e-09
-3.59589e-09
-3.18777e-09
-4.95272e-09
4.101e-10
3.88686e-09
-3.16999e-09
3.85884e-09
-2.01803e-10
-4.07345e-09
1.0859e-10
-5.86165e-09
1.83685e-09
4.36019e-09
-3.85875e-10
2.04766e-10
-3.12337e-09
2.62605e-10
-1.3753e-10
4.68495e-09
-2.74836e-09
1.07619e-09
8.9249e-10
5.98765e-09
-8.91649e-10
-5.98849e-09
-5.7722e-09
4.68934e-09
-1.89167e-10
3.79455e-09
8.96089e-09
-4.38628e-09
-9.03254e-09
8.4712e-09
1.57151e-09
-1.69289e-08
-3.60098e-09
6.51138e-09
1.40185e-08
-4.22024e-10
5.48204e-10
-3.95233e-09
6.96107e-09
-7.03103e-09
3.04074e-09
7.1629e-09
5.7509e-09
-6.28417e-09
8.26116e-10
-9.86718e-10
4.09095e-09
-8.89009e-11
3.76733e-11
-1.34834e-09
-4.42551e-09
-3.62204e-09
2.27017e-09
4.09304e-09
-2.74116e-09
5.13987e-09
-2.20957e-09
1.58242e-10
-3.08855e-09
-1.27657e-10
-4.74941e-09
6.7591e-09
-5.21087e-09
4.40943e-11
-1.59232e-09
3.27474e-09
-1.14117e-09
-3.22398e-09
6.29189e-09
-6.65859e-09
5.25166e-10
-1.58471e-10
2.8282e-09
-2.09439e-09
-8.23186e-09
3.70114e-09
-1.11502e-09
9.34442e-10
-5.57323e-10
3.24258e-09
-8.5469e-09
1.55813e-10
4.10439e-09
-4.20346e-09
-6.86858e-09
8.66714e-10
5.08035e-09
9.21514e-10
5.03262e-10
-4.76337e-09
-6.34698e-10
-4.67559e-09
-1.12772e-10
2.1296e-10
4.5754e-09
3.42661e-09
-6.14486e-09
1.65849e-09
5.74135e-09
3.78696e-10
-5.79843e-09
5.66191e-09
4.70421e-09
5.16211e-09
-1.65897e-09
-4.05197e-09
3.18848e-09
-2.82767e-09
-3.60812e-10
7.09175e-10
-5.86764e-10
-3.88736e-09
-3.31123e-10
-3.58976e-10
2.53428e-10
5.2961e-09
-5.372e-09
7.58963e-11
-4.83594e-09
-1.10426e-10
-3.9574e-09
3.97057e-09
-1.53947e-10
1.40775e-10
-3.07314e-10
5.09083e-09
-3.23325e-10
2.31971e-09
-3.13756e-09
7.01614e-09
2.29279e-09
-6.32848e-09
-2.98044e-09
-9.89941e-10
6.04217e-09
-1.57983e-10
-1.43988e-08
1.77267e-09
1.80717e-10
-8.50472e-09
1.66541e-09
-2.02557e-10
3.77243e-10
4.22635e-09
-4.40104e-09
1.24827e-09
-6.98089e-09
1.18342e-08
-7.09342e-09
6.61387e-09
3.59763e-10
3.64584e-09
-3.98662e-09
-1.89783e-11
-1.55085e-10
-4.01477e-09
3.53666e-10
3.81619e-09
7.18681e-11
3.85269e-09
-3.77404e-09
4.39203e-11
-7.90203e-11
3.55407e-09
-3.77086e-09
2.16791e-10
-4.82254e-09
4.59421e-09
-4.54348e-09
2.34774e-10
-4.26208e-09
-1.37044e-10
8.36497e-11
3.95615e-09
-4.16957e-09
1.2977e-10
3.70383e-09
8.75707e-12
-3.67526e-09
-3.11171e-10
3.93413e-10
4.09687e-09
-3.63088e-09
5.79629e-10
-1.46768e-09
4.51892e-09
-1.1192e-08
1.68435e-09
7.45507e-12
9.50023e-09
-1.10441e-09
-4.90735e-09
5.30217e-09
4.13974e-09
-2.96767e-09
-6.47424e-09
4.10277e-09
-6.41279e-09
-3.72163e-10
1.06765e-09
-5.5616e-09
-1.51243e-08
1.86757e-09
7.53269e-10
-1.02227e-09
3.95827e-09
-1.66162e-09
-8.48826e-10
2.18859e-09
3.21858e-10
-6.8607e-10
4.8211e-09
-5.23945e-09
5.12324e-09
-5.10687e-09
2.37687e-10
-6.89553e-09
-4.26078e-09
5.4326e-11
4.12247e-09
-1.59848e-09
5.05466e-09
7.75645e-10
-4.23183e-09
4.72306e-09
-2.46961e-09
3.04711e-09
-5.30056e-09
-5.86069e-09
-1.1475e-08
9.1304e-09
1.54392e-09
4.48541e-09
-7.2158e-09
2.89324e-09
2.90959e-11
-1.63411e-09
-4.53985e-09
-3.48357e-09
-9.94246e-09
6.20888e-09
1.63248e-10
4.30947e-09
-7.43648e-11
6.10704e-11
-2.28703e-11
-3.35825e-09
3.20624e-09
-1.07327e-10
2.59337e-10
1.14027e-08
4.50931e-10
-9.40425e-09
-2.44938e-09
3.38671e-09
-4.25662e-09
-2.78278e-10
-7.98667e-10
-6.91402e-09
4.96884e-10
-6.76253e-09
-3.48703e-10
-5.40704e-10
-3.36509e-10
7.33485e-10
7.88467e-11
3.00763e-09
-4.26732e-09
3.83562e-09
-3.69688e-09
3.28949e-09
-3.1885e-09
1.40162e-09
-1.17369e-08
-8.56705e-10
-4.80037e-09
2.40558e-10
3.56987e-09
3.34511e-09
-3.63934e-09
4.78786e-09
4.24116e-09
3.55262e-09
-5.09211e-10
-4.48434e-09
4.60174e-09
-4.52613e-09
6.76628e-09
5.76201e-09
-5.94582e-09
5.92516e-09
4.16278e-09
-4.32563e-09
1.70676e-09
-5.26977e-10
4.24541e-09
3.09155e-10
-1.29069e-09
4.41268e-09
-5.67707e-09
4.58156e-09
4.9514e-11
5.2966e-09
-5.38739e-09
9.07852e-11
-4.81065e-09
4.80294e-09
3.07104e-10
-2.99399e-10
4.002e-09
-4.13156e-09
2.85369e-10
-4.45418e-09
-1.0079e-08
-2.40815e-09
6.24565e-10
4.18528e-09
-3.95698e-09
-2.3421e-09
2.1138e-09
1.66583e-10
-5.42388e-09
4.91952e-09
3.37781e-10
4.9897e-10
-6.09247e-09
4.08009e-09
2.54463e-09
-4.69624e-09
5.27124e-10
-3.39613e-09
2.69894e-09
-6.82091e-09
-8.11852e-09
3.81442e-10
8.20374e-09
-4.66658e-10
3.06287e-10
-5.00615e-09
-1.36078e-10
1.32069e-08
3.92734e-09
-4.18792e-09
-1.34665e-10
-3.79089e-09
3.84162e-09
8.39332e-11
4.45068e-09
1.84307e-10
-4.83754e-09
-5.47172e-09
-3.78344e-10
-4.41738e-09
-7.51175e-10
5.53975e-09
-4.74894e-09
4.68966e-09
-4.29528e-10
4.88807e-10
-8.34966e-10
4.02697e-09
9.7078e-10
-2.15215e-09
-5.53332e-09
5.02421e-09
2.66126e-09
-5.38056e-09
2.90459e-09
4.51657e-09
-2.0406e-09
-4.96777e-09
4.4255e-09
-3.20807e-11
-3.25551e-09
-8.0263e-09
3.86094e-09
-2.26411e-09
6.55871e-09
1.92146e-09
-4.74927e-11
-1.07184e-11
4.84519e-09
-4.95499e-10
-5.03576e-09
-3.59612e-10
4.23779e-10
3.93682e-09
-4.00099e-09
7.12185e-09
-5.90543e-09
7.74447e-09
3.83883e-10
-7.3645e-09
1.30817e-10
-2.64884e-10
-3.76636e-09
-3.17898e-10
3.94048e-09
-3.98219e-09
1.05891e-08
-8.1307e-09
-2.45836e-09
-7.12573e-10
4.17902e-09
-3.84374e-09
3.7426e-09
-1.46995e-11
4.14251e-09
-4.09845e-09
9.86001e-11
-1.42654e-10
-1.49066e-10
1.9367e-10
7.79602e-10
-3.59906e-09
-6.55759e-10
3.47521e-09
2.85156e-09
1.2897e-09
4.26114e-09
-3.18522e-09
8.93773e-09
-1.11862e-08
-2.92471e-09
5.1732e-09
-1.0913e-09
-8.72119e-09
3.72048e-09
-3.33349e-09
2.57998e-10
4.52953e-09
7.79665e-11
-2.29836e-09
7.65839e-09
-9.43588e-09
3.19639e-10
4.15411e-09
5.15932e-10
-7.02758e-09
-2.71107e-09
4.18754e-09
-1.97529e-11
-5.04268e-09
3.91439e-10
4.30174e-09
3.50585e-09
-2.36481e-09
-5.44279e-09
-4.69751e-10
5.66e-10
-5.28167e-10
8.33626e-10
4.03776e-09
-4.34322e-09
-2.47225e-09
-6.06335e-09
-4.70226e-09
4.64456e-11
-1.21797e-10
4.77761e-09
4.22538e-09
-1.53892e-09
-2.97766e-09
2.91208e-10
-4.68138e-09
-3.79443e-09
4.62028e-09
-3.97274e-09
3.14923e-10
4.03018e-09
-3.72363e-10
2.99315e-09
6.54564e-10
-3.82267e-09
1.74954e-10
4.6916e-09
-3.15815e-09
3.27042e-09
-4.80388e-09
-1.89492e-08
2.01537e-08
-1.20458e-09
3.25311e-09
-3.86481e-09
3.41045e-09
-2.79875e-09
1.09773e-10
-6.79885e-11
-3.91452e-09
-4.2844e-10
3.70219e-10
2.92676e-09
2.31045e-09
-2.66184e-09
-1.2773e-11
-4.35815e-09
2.39359e-10
4.73174e-09
-5.89806e-09
1.85623e-09
-6.8991e-10
-7.92255e-09
-3.19421e-09
5.80012e-09
5.31663e-09
-8.22364e-09
-5.71879e-09
6.01988e-09
-7.87305e-09
-6.73563e-09
6.38504e-09
2.4766e-09
-4.69853e-09
-1.74847e-09
3.01942e-10
-8.39932e-10
-8.02369e-09
6.87281e-09
4.69129e-09
4.55518e-10
1.34532e-09
3.55301e-09
-4.78136e-09
2.95749e-09
1.05443e-09
7.69449e-10
-1.12376e-09
-4.01075e-09
1.97941e-09
3.15509e-09
-3.77898e-09
4.86001e-09
1.02608e-10
3.63954e-09
4.53584e-13
-2.92346e-10
3.92564e-09
4.01057e-09
-3.83665e-09
3.71902e-09
-1.93535e-10
-2.02395e-10
7.62865e-11
6.5307e-09
2.40057e-10
-1.11346e-10
7.26357e-10
4.48947e-09
-7.59572e-11
7.48882e-09
-8.17914e-09
-9.87597e-09
-1.43676e-09
-4.17676e-09
2.51338e-09
-4.25529e-09
-4.05454e-10
3.93828e-09
-7.32041e-10
-3.71443e-09
5.31948e-10
2.2448e-09
-2.56139e-09
2.56032e-10
-1.99587e-10
-4.04239e-09
2.8102e-10
4.08004e-09
-3.18675e-10
-2.31488e-09
2.25355e-09
3.3389e-09
1.14344e-09
-1.17167e-08
-6.13e-10
8.06431e-09
3.00544e-09
-3.3482e-09
4.52803e-09
7.37065e-10
3.56715e-09
-1.16675e-10
-5.28816e-09
5.30792e-09
-1.97643e-11
-5.01189e-09
4.87581e-09
1.18618e-10
-1.16358e-09
1.21333e-09
-1.68369e-10
-2.98544e-10
-4.0321e-09
2.88263e-10
1.78769e-08
1.91188e-09
-1.07536e-09
-4.08708e-09
2.4142e-10
4.12668e-09
3.89398e-09
4.86658e-10
3.58856e-09
3.69005e-11
-1.5722e-09
-5.03781e-09
9.99197e-10
5.61081e-09
4.3271e-10
3.70576e-10
-3e-09
2.19672e-09
4.61739e-09
3.78813e-09
-4.32543e-09
6.43836e-09
-4.55578e-09
1.64654e-10
4.0524e-09
-3.83981e-09
-3.52795e-09
-7.68826e-09
7.75086e-09
4.03619e-09
1.44548e-10
-3.91813e-09
-2.31969e-09
1.46552e-08
3.1088e-09
5.37917e-10
3.87647e-09
-3.99061e-09
4.41777e-09
2.7154e-10
-4.84202e-09
-4.02619e-09
-3.28104e-11
-2.05527e-09
-1.21982e-08
2.06614e-09
1.21874e-08
-1.68336e-09
4.92105e-09
-3.8526e-09
6.14904e-10
6.38964e-09
-6.10827e-09
-2.81369e-10
-5.93477e-09
5.25882e-09
-5.23001e-10
1.19896e-09
6.73988e-09
-4.23521e-09
-6.28365e-09
-1.07929e-08
3.97231e-09
-3.10802e-09
-7.53044e-09
1.3279e-10
-4.31083e-09
-1.16795e-10
4.29483e-09
-6.57191e-10
-3.36821e-09
6.04628e-09
2.97812e-10
-5.10043e-09
2.30715e-10
-3.10786e-09
3.65342e-09
1.56598e-10
-3.65372e-09
-1.56296e-10
5.90107e-09
-1.42221e-09
-3.91764e-09
-5.61218e-10
4.90575e-09
-5.42172e-09
-1.63617e-09
-3.9847e-09
-6.28443e-12
-2.69386e-11
3.42181e-09
-1.21477e-09
-3.61899e-09
1.41196e-09
1.01532e-09
-6.84397e-09
-6.54416e-09
7.96142e-09
1.69199e-09
-3.66157e-09
3.75933e-09
-5.72297e-10
4.74538e-10
3.62243e-09
-3.60971e-09
1.99103e-10
-2.11823e-10
2.50785e-09
3.92616e-09
-5.32942e-10
2.74113e-10
3.97059e-09
1.70241e-10
-3.96343e-09
3.68296e-09
9.174e-09
-3.71526e-09
1.24181e-08
-4.57266e-09
-2.58837e-09
-9.30127e-10
2.85613e-09
6.62366e-10
-5.48629e-09
3.70298e-09
1.34266e-09
3.03964e-10
2.43117e-09
-6.10827e-10
-2.12431e-09
3.58716e-09
-7.31753e-09
-4.91585e-09
5.12466e-09
-2.35702e-10
2.57637e-10
-5.14659e-09
-5.13061e-10
4.80198e-09
-4.78442e-09
-2.92608e-09
-1.26059e-09
-8.45667e-11
7.04395e-11
6.9456e-09
-5.55956e-10
4.85443e-09
-3.66263e-09
-6.1217e-10
1.45505e-10
3.77329e-09
2.27319e-09
-3.26549e-09
4.23403e-09
-5.14996e-09
3.96576e-09
-4.01039e-09
4.8529e-09
4.4698e-10
-4.39218e-09
7.95295e-11
-1.82396e-10
3.84161e-09
-3.65915e-09
2.7097e-10
-4.53428e-10
-8.70546e-09
1.30729e-10
3.69413e-09
-3.70015e-09
-1.24716e-10
-3.82103e-09
3.47801e-09
4.03974e-10
-6.09515e-11
-4.12211e-09
3.76418e-09
3.82023e-09
2.1925e-10
-2.2311e-11
8.62597e-12
4.04786e-09
4.05263e-09
-3.97363e-09
2.35923e-10
-2.78809e-09
-1.86595e-09
2.93485e-10
-1.48285e-08
-1.04843e-08
3.938e-09
1.17462e-09
-1.08901e-09
-4.02361e-09
-4.23399e-09
4.51499e-09
-8.02772e-09
4.4147e-09
-4.471e-09
-2.72241e-10
3.28543e-10
-2.36341e-10
-4.64607e-09
4.65084e-09
-4.93725e-10
-9.78675e-09
-4.44429e-09
1.39173e-09
4.17579e-09
-1.12322e-09
-9.70033e-11
-4.35076e-09
-1.69802e-10
-3.68803e-09
3.71472e-09
1.43113e-10
-3.12408e-09
-2.90986e-09
-5.13184e-09
4.38946e-10
-3.63989e-09
1.36923e-09
-4.21224e-10
2.69188e-09
-2.58637e-10
6.35771e-11
-4.78148e-09
-3.74759e-09
-7.29702e-10
3.93566e-09
-6.66676e-09
-3.75887e-09
4.00065e-10
2.63511e-09
7.23694e-10
-1.28002e-08
2.5349e-09
6.5033e-09
3.76198e-09
1.64463e-08
-9.89813e-10
1.05946e-09
4.89674e-11
2.95016e-11
4.86025e-10
-1.76443e-10
-3.09582e-10
4.27063e-09
-3.80409e-11
1.82108e-10
-2.67562e-09
2.84853e-11
-4.01985e-09
-1.07189e-10
-3.92296e-09
1.10758e-11
-4.36184e-09
9.54765e-11
-4.65463e-11
5.47318e-09
-1.17666e-09
5.56375e-10
-1.14848e-09
-3.85307e-09
3.83436e-10
4.61811e-09
5.0067e-09
2.94345e-09
2.58013e-10
-3.98768e-09
1.4156e-10
-2.02316e-10
8.77676e-10
-8.16921e-10
2.48715e-10
-4.01291e-09
3.90795e-09
-1.4376e-10
8.80841e-10
4.74097e-10
-1.35494e-09
-7.39393e-10
1.57218e-09
-4.06993e-09
3.84591e-09
-1.34816e-09
1.09149e-10
3.78705e-09
-7.59673e-11
2.97942e-09
6.84797e-09
4.34806e-09
-4.66101e-09
5.84491e-10
2.82405e-10
-2.61821e-10
3.22926e-10
-2.30996e-10
4.14745e-09
-4.23938e-09
4.36178e-09
-3.51828e-09
3.65354e-10
2.71652e-10
1.53236e-09
4.04931e-09
-5.14265e-09
-4.39023e-10