/*--------------------------------*- C++ -*----------------------------------*\
  =========                 |
  \\      /  F ield         | OpenFOAM: The Open Source CFD Toolbox
   \\    /   O peration     | Website:  https://openfoam.org
    \\  /    A nd           | Version:  8
     \\/     M anipulation  |
\*---------------------------------------------------------------------------*/
FoamFile
{
    version     2.0;
    format      ascii;
    class       surfaceScalarField;
    location    "0.2";
    object      phi;
}
// * * * * * * * * * * * * * * * * * * * * * * * * * * * * * * * * * * * * * //

dimensions      [0 3 -1 0 0 0 0];

internalField   nonuniform List<scalar> 
11624
(
-7.56281e-09
7.8589e-09
-1.02002e-10
-1.94088e-10
-6.92794e-09
-1.25647e-10
-5.09219e-10
-2.11353e-09
1.63844e-10
1.86284e-09
8.68417e-11
8.67535e-09
-7.51827e-09
1.98624e-09
-3.14332e-09
-5.53449e-09
5.37086e-09
-1.57073e-10
3.20703e-10
-4.64614e-09
3.87297e-09
8.16422e-10
-4.32526e-11
-1.24013e-09
-3.51511e-10
-2.92314e-09
4.51477e-09
-1.33744e-09
2.53778e-09
3.0192e-09
-4.21954e-09
2.92407e-09
-2.24733e-09
-3.26383e-09
2.58709e-09
-3.13605e-09
-1.55256e-09
2.49533e-09
2.19328e-09
4.38605e-09
-4.29366e-09
9.86082e-11
-1.90996e-10
1.85096e-09
4.71531e-09
-2.04508e-09
-4.5212e-09
-2.72368e-09
-4.1735e-09
2.36644e-09
4.53073e-09
-3.67495e-09
4.40777e-09
-8.49591e-10
1.16767e-10
-1.6872e-09
4.2581e-09
-3.7208e-09
1.14989e-09
-3.83364e-09
2.62055e-09
-2.58298e-09
3.79607e-09
4.06649e-09
-3.98356e-09
7.99064e-12
-9.09185e-11
-3.34998e-09
4.0832e-09
-9.03474e-10
1.70256e-10
-2.71602e-09
3.64898e-09
-4.37997e-09
3.44701e-09
-3.12399e-09
-1.51628e-09
1.89025e-09
2.75002e-09
3.28063e-09
-3.59258e-09
3.47667e-10
-3.57198e-11
-3.59214e-09
4.32366e-09
-4.29849e-10
-3.01667e-10
4.57615e-09
-4.72144e-09
1.71351e-10
-2.60579e-11
5.52133e-09
-1.63003e-09
9.7431e-10
-4.86561e-09
4.47422e-09
-4.19708e-09
-2.15273e-10
-6.18585e-11
-4.65752e-09
1.25175e-09
4.14889e-09
-7.43122e-10
2.31294e-09
-3.79745e-09
-3.38256e-09
4.86708e-09
2.44183e-09
-2.2951e-09
-3.05481e-09
2.90808e-09
-2.7584e-09
3.45653e-09
-4.21908e-09
3.52095e-09
-5.71533e-09
4.49378e-09
-3.9433e-09
5.16485e-09
4.59167e-09
-1.86839e-10
6.93848e-11
4.47975e-09
-9.55076e-11
1.91909e-10
-4.40479e-09
4.35775e-09
7.35012e-11
-2.6468e-11
-5.0216e-09
4.36213e-09
6.70244e-10
-1.07717e-11
4.64706e-09
-8.81579e-11
3.27731e-11
-2.59538e-11
7.218e-12
-4.42664e-09
4.71735e-10
-2.42182e-10
-5.10059e-10
4.71166e-09
-5.2303e-09
1.0287e-09
-3.59445e-09
3.18371e-09
-2.29838e-10
2.30749e-10
-3.86042e-09
1.76126e-09
-1.16641e-09
3.26558e-09
2.55366e-09
-4.10625e-09
-2.47079e-09
4.02337e-09
-3.05853e-11
-1.68142e-10
8.05763e-09
3.07709e-10
-4.53215e-09
-4.97001e-10
5.24082e-09
-4.52199e-10
-5.98102e-09
1.19241e-09
1.95034e-09
-1.76337e-09
-2.8889e-09
2.70194e-09
-8.8025e-09
-3.17747e-10
2.1923e-09
3.14963e-09
9.22001e-10
-1.6822e-09
-2.38943e-09
8.4135e-09
-6.45552e-09
4.74309e-09
-6.70108e-09
4.1258e-09
-3.40093e-09
2.98917e-09
-3.71404e-09
-1.88031e-09
-5.13898e-10
2.80679e-10
3.93745e-09
-4.17649e-09
-4.93157e-09
5.17061e-09
1.02733e-09
-9.43113e-10
3.47344e-09
-3.55766e-09
-3.5998e-09
-1.03321e-09
4.5175e-09
1.15509e-10
3.11432e-09
4.81638e-09
-5.18212e-09
-2.74859e-09
6.67951e-10
-4.53481e-10
2.60983e-10
-4.75452e-10
1.83654e-09
-7.90555e-10
5.00391e-09
-6.0499e-09
-2.22512e-09
2.54425e-09
8.35622e-09
-5.18645e-09
1.508e-09
-2.22526e-10
3.90098e-09
3.40251e-09
-3.60994e-09
7.44357e-10
-5.36933e-10
-2.92681e-09
3.68503e-09
3.16176e-09
-3.91998e-09
4.51105e-09
-4.14378e-09
-2.59535e-09
2.22809e-09
-7.27703e-10
1.3836e-09
-4.81135e-09
4.15545e-09
-6.97725e-09
5.97114e-09
-3.21649e-09
4.2226e-09
1.31716e-09
-5.46143e-10
-3.7413e-09
2.97028e-09
-2.22033e-10
2.40843e-10
-2.35928e-10
2.17117e-10
-1.85926e-09
4.15853e-09
-3.63672e-09
2.34508e-09
-3.98837e-09
3.40927e-09
-1.76598e-09
-4.42386e-09
1.67283e-11
3.89707e-09
2.20271e-10
2.28549e-10
-2.26548e-10
-2.22272e-10
2.69309e-09
6.97583e-09
-1.01815e-08
5.12586e-10
2.71075e-09
-2.7707e-09
-2.91116e-09
2.97111e-09
1.30631e-09
4.03789e-09
-8.78889e-10
-4.46531e-09
3.0341e-09
-2.96687e-09
-3.16848e-09
3.10125e-09
-1.05e-09
8.83595e-11
1.49602e-09
-5.34382e-10
-4.60275e-09
-2.58906e-09
3.1648e-09
4.02701e-09
-2.70758e-09
-2.89102e-09
2.86085e-09
2.73775e-09
-4.67547e-09
4.61856e-09
-7.93124e-10
8.50034e-10
-5.10741e-09
-7.59839e-09
5.18753e-09
-2.81855e-09
2.71094e-09
3.023e-09
-2.91539e-09
-1.4229e-09
3.23388e-09
-4.17836e-09
2.36738e-09
-1.78993e-09
1.99988e-10
-4.87412e-09
-1.36663e-09
1.4875e-10
-3.74975e-09
-1.33103e-09
1.44563e-10
-3.65434e-09
-1.30436e-09
1.41453e-10
-3.58268e-09
-1.55404e-09
1.7118e-10
-4.24964e-09
4.76214e-09
-5.01158e-09
4.3332e-10
-1.83882e-10
-1.89018e-09
2.04215e-10
-5.43082e-09
-1.34957e-09
1.40684e-10
-3.92458e-09
-1.42425e-09
1.47386e-10
-4.08742e-09
-1.60095e-09
1.67931e-10
-4.57764e-09
-1.23485e-09
1.25836e-10
-3.56222e-09
-2.23161e-10
2.62296e-10
1.93903e-10
-2.33037e-10
5.23276e-09
5.54626e-09
-8.05123e-09
-2.72779e-09
-3.98866e-09
2.6023e-09
3.73143e-09
-5.65782e-09
-5.08058e-09
4.27909e-09
6.45931e-09
-2.31896e-10
2.43874e-10
-2.38349e-10
2.26372e-10
9.16412e-10
-9.54536e-10
3.74791e-09
-3.70979e-09
4.72678e-09
6.3791e-09
-6.94964e-09
-4.15624e-09
6.34245e-09
7.74913e-09
-9.81246e-09
-4.27912e-09
-1.0194e-09
2.9611e-10
-4.17903e-09
4.90232e-09
2.47788e-09
2.44822e-09
-2.4423e-09
-2.4838e-09
-4.15156e-09
1.16466e-10
3.90486e-09
1.30228e-10
-3.61006e-09
2.17733e-09
-2.98059e-09
4.41332e-09
-3.40041e-09
-2.99182e-09
2.78217e-09
-2.57885e-09
2.09887e-09
5.42193e-09
-4.94194e-09
-2.32586e-09
2.97606e-09
-2.55601e-09
1.90581e-09
9.66296e-11
3.63611e-09
3.33745e-10
2.37356e-09
3.21254e-09
-4.63612e-09
-9.49983e-10
-3.7809e-10
1.42645e-09
-1.56409e-09
5.15725e-10
3.79434e-09
4.92959e-10
-3.57324e-09
-7.14054e-10
-9.44127e-11
-3.83064e-09
-5.01583e-10
3.19084e-09
-3.44662e-09
4.41618e-09
-4.1604e-09
-2.7073e-09
5.90088e-10
4.5916e-09
-2.47439e-09
2.4258e-09
8.32997e-09
-1.22023e-09
-9.53554e-09
3.53712e-09
7.86837e-09
-8.9797e-09
4.96808e-09
7.56728e-10
-9.62662e-10
-4.06987e-10
3.53636e-10
8.38332e-09
-3.37197e-09
-2.95551e-09
2.53002e-09
-1.09568e-09
6.67941e-10
1.45834e-09
-1.03061e-09
4.16223e-10
-1.10762e-10
4.21772e-09
-4.52318e-09
-3.87931e-10
6.57247e-10
-2.24013e-09
1.97081e-09
1.37274e-09
-3.80455e-09
3.66874e-09
-1.23694e-09
1.40057e-09
-1.16291e-09
2.68642e-09
2.74014e-09
-2.93409e-09
3.09253e-09
-2.89859e-09
4.57915e-09
9.30855e-09
-3.03998e-09
-1.08477e-08
-1.93243e-09
-2.44716e-09
2.99321e-09
1.38638e-09
1.05166e-09
4.19024e-09
-2.83633e-09
-2.40557e-09
1.04279e-10
-2.13875e-10
-1.86738e-09
1.97698e-09
2.92444e-09
3.36888e-09
-3.73966e-09
3.467e-10
-6.19522e-10
4.41743e-09
-4.14461e-09
6.7698e-11
3.02625e-09
4.12823e-10
-3.50678e-09
2.95832e-09
-2.61533e-09
-2.66884e-09
-5.90595e-09
-5.64531e-09
5.89344e-09
8.49885e-11
1.54912e-10
-4.90077e-11
-1.90893e-10
6.29361e-09
-7.93178e-10
-1.13124e-10
-5.3873e-09
-4.97334e-09
-8.8471e-10
5.22484e-10
5.33557e-09
3.36256e-09
-4.71349e-09
-3.7556e-09
5.10654e-09
2.1536e-09
-4.03289e-09
-2.79618e-09
3.65117e-09
-3.88137e-09
-1.1927e-09
3.30621e-09
3.23872e-09
-3.35409e-09
4.41335e-09
-3.51775e-09
-5.76322e-09
4.86762e-09
1.72509e-09
-3.83376e-09
3.48142e-09
-4.8324e-09
-3.14699e-09
2.26406e-09
-2.12348e-09
7.65311e-10
1.45734e-09
-9.91656e-11
-3.59283e-09
-2.40728e-09
3.99118e-09
2.00893e-09
2.3348e-09
-3.17086e-09
3.38263e-09
-2.54657e-09
2.45638e-10
-2.51773e-10
2.2829e-10
-2.22154e-10
-3.95659e-09
3.93002e-09
-3.7901e-09
3.81666e-09
7.46577e-09
1.56172e-09
-2.79149e-09
-6.23601e-09
-3.12764e-09
2.32523e-09
-3.40111e-09
4.20352e-09
3.32799e-09
-7.70573e-09
9.10452e-09
4.52617e-10
-7.69219e-10
-2.38921e-09
2.70581e-09
-2.30457e-10
3.81104e-09
-3.7089e-09
1.28309e-10
5.16103e-09
-4.22248e-09
-7.20734e-10
-2.17814e-10
-1.58941e-09
-3.93219e-09
2.00281e-09
3.51878e-09
-6.72922e-09
-5.23966e-10
7.25319e-09
-1.61785e-09
2.77693e-10
1.49573e-09
-1.55566e-10
-6.55799e-10
-3.51659e-09
6.03479e-10
3.5689e-09
-4.41891e-09
-3.85325e-09
4.48e-09
3.79215e-09
-4.24572e-09
-4.40976e-09
2.89573e-09
5.75974e-09
5.52178e-09
-6.76895e-09
7.84092e-09
-6.59375e-09
8.20563e-10
-4.0186e-09
4.11444e-09
4.53314e-09
-3.55794e-09
3.73646e-09
-2.39427e-10
-2.25009e-10
2.3523e-10
2.29206e-10
-4.03011e-09
3.76859e-09
2.66361e-10
-4.83456e-12
4.50757e-09
-4.14355e-09
2.60242e-10
-6.24261e-10
4.61328e-09
-4.20102e-09
2.87383e-10
-6.99646e-10
4.42007e-09
-4.06278e-09
2.54711e-10
-6.12009e-10
3.14132e-09
-3.5038e-09
-8.78332e-10
1.24081e-09
-4.38186e-09
4.40391e-09
8.54611e-12
-3.06024e-11
2.88833e-09
-3.01879e-09
2.97579e-09
-2.84533e-09
-4.77732e-10
3.91824e-09
7.91664e-10
-4.23217e-09
2.31414e-10
-2.66108e-10
2.36978e-10
-2.02284e-10
-1.48321e-08
1.62005e-08
-6.98682e-09
5.61846e-09
4.3298e-09
-4.557e-09
-1.03033e-10
3.30226e-10
-2.80788e-09
-2.95151e-09
2.17791e-09
3.58147e-09
2.45096e-09
-2.41138e-09
3.29691e-09
-3.3365e-09
-7.98869e-09
-8.42316e-09
8.70047e-09
7.71138e-09
2.82252e-09
-3.06182e-09
7.67375e-09
-8.5371e-09
-6.97125e-09
7.8346e-09
-2.42007e-09
2.11948e-09
-2.8025e-09
3.1031e-09
-5.57686e-11
3.71542e-12
-5.33647e-09
4.50328e-09
-2.76141e-10
1.10933e-09
3.8396e-09
-2.11148e-09
1.83871e-09
-3.56683e-09
-2.51611e-09
3.70211e-09
2.08435e-09
-3.27036e-09
-3.01099e-09
-8.61265e-11
5.43765e-10
2.55335e-09
3.82871e-09
-5.94308e-10
-3.8902e-09
4.21977e-09
-4.0892e-09
-3.39935e-09
3.26879e-09
-3.80741e-09
4.1463e-09
9.59902e-11
-4.34878e-10
-3.87534e-09
4.22804e-09
9.91998e-11
-4.51903e-10
-3.26994e-09
3.92312e-09
7.14107e-10
-1.36729e-09
-2.76611e-09
3.03804e-09
-2.71806e-09
2.44613e-09
-3.04357e-10
8.28842e-09
-7.98406e-09
1.04485e-12
-3.71487e-09
-2.69734e-10
-2.42634e-10
2.80367e-09
7.63656e-10
-3.32469e-09
2.86091e-10
-3.05247e-10
2.39561e-09
-4.38487e-10
5.71546e-10
-2.52867e-09
4.41416e-09
-1.49778e-11
4.73242e-12
4.44918e-09
-4.36847e-09
5.93645e-12
-8.66519e-11
3.89321e-09
-3.80051e-09
-5.33827e-11
-3.93221e-11
3.66284e-09
-3.5236e-09
-4.9077e-09
4.76846e-09
2.12206e-10
-1.63784e-10
-2.16382e-10
1.6796e-10
3.49331e-09
1.19863e-09
-2.71862e-10
3.65742e-09
1.24384e-09
-2.87979e-10
3.56226e-09
1.22235e-09
-2.77035e-10
-4.33658e-09
5.09178e-09
-9.86018e-10
2.30814e-10
4.85079e-09
-4.79e-09
-2.40506e-10
1.79721e-10
-1.26714e-09
1.33346e-09
7.67746e-10
-8.34073e-10
-2.24352e-09
-4.46669e-09
3.55656e-09
3.15364e-09
-4.80762e-09
4.29512e-09
8.24129e-10
-3.11624e-10
5.71413e-09
1.10718e-10
-9.74059e-10
3.67864e-09
4.76512e-09
-4.16441e-09
-4.27935e-09
-3.82674e-09
2.73973e-10
3.56068e-09
-7.91565e-12
4.35495e-09
-4.34064e-09
-2.05511e-11
6.24658e-12
-3.76044e-09
3.76423e-09
1.7612e-11
-2.14051e-11
-3.85743e-09
3.86131e-09
1.80825e-11
-2.19545e-11
-3.68754e-09
3.69125e-09
1.73076e-11
-2.10127e-11
1.16775e-09
-2.61244e-10
3.49918e-09
3.72927e-09
-5.24317e-09
-1.98527e-09
4.84704e-09
-4.57503e-09
-2.33545e-10
-3.84645e-11
-4.38766e-09
3.886e-09
2.65525e-09
-5.71088e-09
5.43032e-09
-2.26442e-10
5.06996e-10
-4.28016e-09
-6.39979e-10
3.63143e-10
-1.56138e-09
-8.78388e-10
1.17263e-09
4.24728e-09
-1.12852e-10
-2.41221e-10
4.69771e-09
-4.68185e-09
1.49641e-11
-3.08258e-11
-4.28287e-09
4.32983e-09
-4.48026e-11
-2.15727e-12
-3.67622e-09
3.73778e-09
-7.93244e-11
1.77707e-11
-3.77115e-09
3.83421e-09
-8.14038e-11
1.83471e-11
-3.60498e-09
3.66535e-09
-7.76649e-11
1.72923e-11
3.30106e-09
-3.27778e-09
-5.77492e-10
5.54207e-10
5.2483e-09
3.14822e-10
-1.11394e-09
2.7341e-09
-3.37717e-09
2.97787e-09
-2.98955e-09
2.35227e-09
2.96251e-09
5.46925e-09
-4.69343e-09
-2.19014e-11
-7.53925e-10
3.93391e-09
2.50722e-10
-8.83568e-10
6.33808e-09
-6.08695e-09
-6.51969e-10
4.00836e-10
3.87478e-09
-3.94448e-09
-4.23556e-11
1.12057e-10
4.23733e-11
-8.38361e-11
3.31798e-09
-3.35825e-09
-4.80251e-11
8.82976e-11
3.40404e-09
-3.44527e-09
-5.04912e-11
9.1729e-11
3.25358e-09
-3.29334e-09
-4.65888e-11
8.63483e-11
2.76365e-10
5.22068e-10
-5.81001e-09
-3.78663e-09
4.23795e-09
-5.31868e-10
8.05498e-11
-3.88684e-09
4.3487e-09
-5.42966e-10
8.11102e-11
-3.71312e-09
4.15574e-09
-5.21497e-10
7.88761e-11
-4.53703e-09
1.03855e-10
-9.03297e-10
4.09026e-09
-1.18858e-09
-3.85622e-09
-2.82721e-09
-2.8e-09
3.00922e-09
2.61799e-09
4.28565e-10
-1.5639e-10
-6.33255e-10
3.6108e-10
2.88889e-09
-3.83712e-09
4.61108e-09
9.56375e-10
-2.33059e-10
3.52883e-09
-9.88822e-11
1.32313e-10
3.6219e-09
-1.03748e-10
1.39264e-10
3.46036e-09
-9.68333e-11
1.29784e-10
4.48875e-09
-6.94441e-11
-5.15162e-12
-2.23219e-10
1.74942e-10
8.28156e-10
-2.00951e-10
-3.91284e-09
6.56346e-11
-3.53812e-10
4.35455e-09
-4.34289e-09
1.32673e-11
-2.49273e-11
-3.86549e-09
2.28995e-10
-4.26278e-10
-3.94198e-09
2.3341e-10
-4.3498e-10
5.64821e-09
-5.08517e-09
3.81781e-11
-6.01214e-10
-4.34892e-09
4.35593e-09
1.76039e-11
-2.46103e-11
-4.65534e-10
2.12767e-10
-4.84164e-10
2.19223e-10
-4.74769e-10
2.16963e-10
-3.7563e-09
3.77315e-09
3.40038e-12
-2.02472e-11
-3.85316e-09
3.87044e-09
3.46263e-12
-2.07454e-11
-3.68346e-09
3.69998e-09
3.35497e-12
-1.98796e-11
-4.93579e-09
5.03375e-09
-1.02891e-10
4.93212e-12
-3.59797e-09
3.79952e-09
-3.72032e-10
1.70478e-10
5.0965e-09
3.89566e-09
-5.31351e-09
2.69805e-09
3.3359e-09
-3.48058e-09
-2.55336e-09
-4.08518e-09
4.13649e-09
-2.99426e-11
-2.13727e-11
-3.55988e-10
2.36367e-09
-3.38155e-09
3.58792e-09
4.88564e-11
-2.55227e-10
4.47246e-09
-4.10741e-09
-1.92431e-11
-3.45805e-10
-3.57042e-09
3.6071e-09
-1.61071e-11
-2.05692e-11
4.95681e-09
6.75711e-10
-2.02199e-10
4.01193e-09
-3.99904e-09
9.36062e-12
-2.22534e-11
4.68036e-09
-4.17879e-09
7.73884e-11
-5.78957e-10
3.02242e-09
-4.06089e-09
3.55563e-09
-2.51716e-09
-3.60679e-09
4.07744e-09
6.97467e-11
-5.40401e-10
6.17413e-09
1.99068e-09
-4.3184e-09
-3.84641e-09
-3.98594e-09
4.01897e-09
-1.65056e-11
-1.6522e-11
-4.67667e-09
4.58081e-09
-5.49549e-11
1.50816e-10
-6.32039e-10
3.99232e-09
4.44662e-10
-3.80494e-09
-9.33226e-10
4.9679e-09
-2.86756e-10
3.75991e-09
-2.88346e-09
3.03599e-09
-3.91244e-09
2.74818e-09
-4.16319e-09
3.41867e-09
-2.00366e-09
-3.56703e-09
-1.80017e-10
-5.75819e-10
4.41234e-10
3.92892e-09
4.43353e-09
-3.84067e-09
2.6946e-11
-6.19804e-10
-4.85929e-09
4.76692e-09
-9.34907e-11
1.85863e-10
-3.1614e-10
2.52306e-10
6.38346e-11
3.22234e-09
-3.23896e-09
-4.09433e-11
5.75576e-11
3.87546e-09
-3.77951e-09
2.44986e-10
-3.40944e-10
-3.59072e-09
-3.0385e-09
2.67263e-09
5.5676e-09
-5.73673e-09
2.03775e-10
-3.46416e-11
-3.74431e-09
-1.01743e-10
3.86416e-11
-1.49777e-10
9.3996e-11
1.45701e-10
-8.99199e-11
5.87318e-09
-4.8725e-09
1.95937e-10
-1.19662e-09
4.1404e-09
2.11489e-10
-4.7711e-10
-4.28737e-09
4.65548e-09
-1.05064e-11
-3.57609e-10
3.68998e-09
-4.39823e-10
3.42796e-12
3.86153e-09
-4.60972e-10
3.47486e-12
3.76351e-09
-4.48774e-10
3.24385e-12
5.07052e-09
-5.2918e-09
3.62886e-10
-1.41604e-10
-4.7654e-10
9.35572e-11
-1.74572e-10
5.57555e-10
-3.80479e-09
-1.21023e-10
5.04766e-11
6.41429e-10
-1.93564e-09
-5.90452e-10
1.88466e-09
-2.9787e-09
3.42884e-09
3.14034e-10
-7.64176e-10
4.72542e-09
-1.56366e-09
-3.16176e-09
-4.41308e-10
4.23597e-09
8.31047e-10
-4.6257e-09
5.52968e-09
-5.54369e-09
-9.47944e-12
2.34918e-11
-5.75594e-09
5.70485e-09
-8.90711e-11
1.40163e-10
-3.79567e-09
3.87234e-09
4.1629e-10
-4.16872e-09
-2.7533e-10
1.56684e-10
3.89821e-09
2.35817e-10
-3.7178e-09
-2.37455e-09
2.34292e-09
3.00769e-09
-5.79125e-09
-6.84949e-10
3.89252e-10
1.40642e-10
-6.56849e-11
-5.50177e-09
6.28511e-09
1.92379e-10
-9.75714e-10
3.23042e-09
-3.61526e-09
-1.54708e-10
-2.43072e-10
-2.88e-09
4.20688e-10
3.99384e-09
-5.4594e-12
-8.683e-11
3.61375e-09
-3.60291e-09
5.97805e-12
-1.68202e-11
4.80381e-09
-3.65374e-10
-4.44196e-09
3.51752e-12
4.05125e-09
-3.10336e-10
-3.75251e-09
1.15961e-11
4.13216e-09
-3.16382e-10
-3.82661e-09
1.08323e-11
4.23988e-09
-3.24408e-10
-3.92516e-09
9.68888e-12
5.50664e-09
-4.18591e-10
-5.08227e-09
-5.78761e-12
5.17642e-09
-6.87831e-10
3.58451e-10
3.98499e-09
-3.91188e-09
-7.05973e-11
-2.52049e-12
3.64292e-09
-1.42606e-10
7.27729e-10
3.57306e-09
-1.40837e-10
7.14077e-10
-1.43229e-10
3.31242e-10
-4.21813e-09
-6.90428e-09
7.72139e-10
-6.89219e-11
6.20106e-09
4.36208e-09
-3.84604e-12
-3.2818e-12
-3.60339e-09
3.61321e-09
1.03875e-11
-2.0214e-11
2.72315e-09
-3.13575e-09
3.67894e-09
-3.26635e-09
4.70166e-09
-4.65701e-09
-1.31673e-11
-3.14847e-11
-3.98984e-09
-9.94885e-12
1.38515e-11
-3.23214e-10
4.10309e-09
-3.7736e-10
4.19325e-09
-4.14726e-09
-2.04384e-11
-2.55584e-11
-2.08586e-10
6.61174e-11
-2.55342e-10
3.40338e-10
-2.66395e-10
3.56778e-10
-2.60189e-10
3.47477e-10
-3.98913e-10
2.76737e-11
3.9443e-09
-4.07417e-10
2.80666e-11
4.02227e-09
-4.53811e-09
4.61756e-09
-1.09968e-10
3.05153e-11
5.0017e-09
3.27074e-11
-7.75973e-11
4.51252e-11
-8.13191e-11
-3.6727e-09
2.47652e-10
6.46566e-10
-3.94095e-09
-5.89071e-11
6.18307e-10
8.26945e-10
-2.6815e-10
8.5454e-10
7.86148e-12
8.95637e-10
7.78939e-12
8.71571e-10
8.12412e-12
3.92114e-09
-3.91798e-09
-3.36822e-09
3.07912e-09
-2.93763e-09
3.22674e-09
-5.83179e-09
-4.8141e-10
5.4414e-09
8.71797e-10
-4.89181e-09
4.94693e-09
-4.43287e-11
-1.07937e-11
-2.40714e-11
1.32573e-11
-2.01894e-10
-4.4274e-09
-2.06551e-11
-1.5358e-12
-2.16335e-11
-1.59192e-12
-2.11047e-11
-1.55248e-12
5.39897e-09
-5.36254e-09
-2.42251e-11
-1.22061e-11
3.19534e-09
-2.93504e-09
-3.03721e-09
2.7769e-09
-3.64111e-09
-2.6975e-10
3.74774e-11
3.87339e-09
-8.8551e-10
3.8544e-10
3.6159e-09
-3.09791e-09
-4.84229e-09
5.16055e-09
-6.45875e-10
3.27606e-10
3.67982e-09
-3.95057e-10
-6.24179e-11
4.06355e-09
2.06696e-11
-6.52459e-11
3.14007e-09
-3.52178e-09
-2.98651e-09
-9.91155e-11
1.43073e-10
-1.16453e-10
7.24956e-11
-3.77805e-09
3.84704e-09
-5.82994e-11
-1.06921e-11
-3.87546e-09
3.94623e-09
-5.98425e-11
-1.09258e-11
-3.70479e-09
3.77248e-09
-5.71797e-11
-1.05031e-11
-3.30506e-09
3.82147e-09
2.82012e-09
-3.33653e-09
-3.15128e-09
-2.01304e-09
3.9659e-09
-8.7296e-11
5.54925e-10
-3.58668e-10
4.31697e-10
-2.3279e-10
3.93195e-09
6.96722e-10
-4.39588e-09
1.35096e-09
-1.71203e-10
6.86573e-10
3.21753e-10
3.70142e-09
-2.83171e-10
1.05421e-09
3.44628e-09
-1.81973e-10
8.13132e-10
-4.73468e-11
1.07175e-10
2.94997e-10
-3.54825e-10
-5.56175e-09
-4.16549e-10
4.66274e-11
5.93168e-09
-1.21415e-10
7.7552e-11
-4.63108e-09
4.65065e-09
1.63996e-11
-3.59718e-11
3.9402e-09
-1.97337e-10
9.37496e-10
-3.81324e-10
1.68429e-10
-5.59207e-10
3.81026e-09
-4.44967e-09
1.19862e-09
-3.8141e-09
3.89208e-09
-6.53797e-10
-4.16194e-11
4.07633e-09
4.21179e-09
-5.22602e-09
4.37353e-09
-3.3593e-09
4.62762e-09
-5.31504e-10
-8.41809e-11
9.59146e-10
-1.44331e-10
4.78348e-10
-8.93397e-11
3.79028e-09
-4.93336e-09
1.95162e-09
-8.08534e-10
-2.51983e-09
-5.9897e-09
5.93816e-09
2.57137e-09
-4.343e-09
4.33053e-09
-1.97423e-12
1.44533e-11
-5.13392e-09
1.70884e-09
5.27604e-09
1.70558e-10
-7.97918e-11
8.10043e-11
-1.7177e-10
-5.90998e-09
-2.94217e-09
6.33232e-09
-3.8694e-09
3.43676e-09
6.39948e-10
-2.07308e-10
-3.69923e-09
3.28551e-09
6.11914e-10
-1.98194e-10
-3.77218e-09
3.35036e-09
6.23917e-10
-2.02092e-10
-3.74287e-09
7.07378e-11
-6.21532e-10
-2.43966e-09
-2.30065e-09
-1.98477e-09
-5.09726e-09
2.69437e-09
5.06775e-09
-1.11118e-09
1.11396e-09
-3.1972e-09
-3.395e-09
3.87618e-09
1.22448e-10
2.30782e-10
-1.82673e-10
-3.60724e-09
-6.21971e-12
1.00705e-11
-1.34318e-10
1.01808e-11
-7.52107e-09
5.96211e-09
-4.34699e-09
-3.61792e-09
3.85467e-09
-2.46959e-10
1.02051e-11
-4.09124e-09
4.46651e-09
-3.69773e-10
-5.49347e-12
-4.06148e-09
4.23774e-09
3.1863e-09
2.71377e-09
-2.13001e-09
9.90994e-11
-8.85501e-12
1.8004e-10
2.99453e-10
-2.67287e-10
-4.80751e-09
5.31573e-09
-5.29854e-10
2.16341e-11
3.86535e-09
-5.07967e-09
-5.50923e-11
1.58543e-10
3.13072e-09
-5.51355e-09
5.05673e-09
-2.67389e-09
-4.29599e-09
4.75095e-09
-4.74327e-10
1.9368e-11
-6.49902e-09
6.85724e-09
-7.87929e-09
-7.16621e-12
7.02584e-12
4.7141e-09
-2.19423e-10
1.15353e-09
-1.62081e-10
1.71042e-11
8.66084e-12
-8.71337e-13
9.0275e-12
-8.78632e-13
8.81056e-12
-8.8435e-13
-4.60551e-09
-6.95584e-10
2.79495e-10
4.0094e-10
-1.60307e-10
6.58917e-10
-1.29752e-10
6.51246e-12
-1.84217e-10
-6.22545e-13
1.21655e-11
3.41328e-09
3.19129e-09
-2.30406e-09
-4.30052e-09
-5.41962e-09
5.77989e-09
-3.99417e-10
3.91445e-11
3.82383e-09
2.23676e-09
-2.22099e-09
3.61063e-09
5.71243e-11
-7.98299e-11
3.96853e-10
1.84917e-10
-8.58882e-11
5.38153e-11
3.3237e-09
3.3265e-09
-3.0343e-09
7.537e-12
5.616e-12
-2.04291e-09
1.71284e-09
3.06417e-09
3.95287e-09
1.40409e-10
-4.09328e-09
-3.85286e-09
3.34774e-09
7.22199e-10
-2.17075e-10
1.59811e-11
-2.07912e-11
1.67013e-11
-2.17218e-11
1.62809e-11
-2.11789e-11
1.04317e-10
-1.55739e-10
-4.1702e-09
3.70434e-09
6.85788e-10
-2.19927e-10
-4.21453e-09
7.0424e-10
-1.8894e-10
-4.40897e-09
7.37274e-10
-1.97704e-10
-4.29789e-09
7.184e-10
-1.92695e-10
4.02705e-09
-7.27353e-11
3.06793e-11
3.68091e-09
-7.58661e-10
-4.81907e-09
1.89682e-09
-4.66254e-09
4.141e-09
7.64967e-10
-2.43425e-10
-2.50366e-11
4.38084e-10
-2.00289e-10
-2.30782e-10
2.67287e-10
4.22434e-09
-6.4566e-11
3.34809e-11
1.06208e-09
-3.6602e-09
-1.00168e-09
1.37556e-11
-7.14125e-13
7.63153e-11
-5.24122e-11
4.13656e-09
-4.65343e-09
7.79192e-10
-2.62329e-10
-8.22923e-09
4.59455e-09
7.17181e-09
4.73055e-09
-6.41206e-11
3.52288e-11
-4.28806e-09
-1.53697e-11
2.3267e-11
-4.4432e-09
-1.57343e-10
-3.05369e-11
4.36523e-10
-3.47013e-10
5.77995e-11
-1.21988e-10
6.36198e-11
-1.75976e-10
3.60884e-09
-1.53048e-11
2.02222e-11
1.05941e-11
-2.13569e-11
7.26297e-11
-1.44279e-10
3.50192e-10
-3.46652e-10
3.41476e-09
5.11904e-09
-4.7739e-09
8.02001e-11
-1.57161e-10
1.31885e-11
4.71081e-10
-4.39172e-10
-4.50981e-11
4.38729e-11
-5.29562e-11
8.59854e-10
-2.4621e-10
5.40247e-09
4.94026e-12
-8.43966e-12
3.99755e-09
-4.25862e-09
4.19109e-09
7.89941e-10
-2.09193e-10
4.86409e-09
3.89915e-11
1.39053e-09
3.96401e-10
-1.70941e-10
-3.63265e-12
-3.58129e-11
-5.36012e-12
-2.58386e-11
2.96194e-09
3.32707e-09
-2.72289e-09
-3.56613e-09
-7.38853e-09
8.28068e-09
7.75877e-09
-8.65092e-09
4.26566e-10
-3.96167e-10
-1.72108e-11
1.52584e-11
-4.95661e-12
-5.32615e-09
5.25004e-09
1.59839e-10
-8.37301e-11
4.16018e-11
-5.87451e-11
8.85055e-10
-2.31866e-10
2.30918e-10
3.54504e-10
-3.50192e-10
-5.50776e-09
5.91076e-09
-4.42812e-10
3.98123e-11
-6.09777e-09
-1.05963e-09
1.66444e-09
5.49295e-09
5.82233e-11
-2.60212e-10
-3.75735e-09
2.34561e-09
3.80737e-09
-2.39563e-09
3.09313e-09
-1.50716e-10
9.12256e-10
-2.36887e-09
2.63778e-09
-6.25861e-09
1.87588e-09
4.48332e-09
-2.47777e-09
-3.88143e-09
-7.73443e-11
4.68592e-11
3.90309e-09
-4.23756e-09
-3.02912e-09
3.3636e-09
4.0763e-09
-1.7039e-10
4.78393e-09
-2.08463e-10
1.20442e-09
-4.41513e-09
2.62633e-09
2.81802e-09
-1.02923e-09
3.35274e-09
1.84992e-11
-2.78107e-10
2.97077e-09
-2.88482e-09
2.41791e-09
-2.50386e-09
-5.06628e-09
3.07084e-10
-7.48564e-10
3.97774e-09
-4.05615e-09
1.73886e-09
-2.69101e-10
-1.71838e-09
2.48622e-10
3.06601e-09
2.84582e-09
-2.29973e-09
-3.6121e-09
-7.09274e-09
2.72284e-09
-2.60736e-09
-4.02957e-09
-2.94221e-09
3.84752e-09
3.12426e-09
4.68678e-09
-3.42242e-09
2.14892e-09
3.61137e-09
3.41444e-09
-2.58762e-09
-2.32263e-09
1.95874e-09
5.24778e-09
1.00085e-10
-5.63931e-10
-4.04923e-09
4.64587e-10
-4.28311e-09
5.89904e-11
4.1666e-09
5.75275e-11
-3.45906e-09
2.86055e-09
-2.42028e-09
2.40102e-10
-3.36923e-10
3.26027e-10
2.00781e-09
-2.83575e-09
-8.74465e-11
-4.12104e-09
3.81746e-10
4.46223e-10
-3.69985e-09
-5.68576e-09
4.76342e-09
-2.24236e-09
3.1647e-09
3.8229e-09
-3.77778e-09
-2.7929e-09
-5.82543e-09
7.04713e-09
1.5712e-09
2.27906e-09
-1.03035e-11
-3.58591e-11
4.72729e-10
-2.44637e-09
-6.07182e-09
5.67476e-09
2.84343e-09
7.99827e-10
3.44991e-09
-3.46932e-09
-7.80417e-10
-5.64978e-09
-2.62907e-09
-1.10772e-09
-7.03151e-09
5.98523e-09
2.15399e-09
-1.83518e-09
1.80885e-09
1.16903e-09
-3.8613e-09
4.9679e-09
-2.27563e-09
1.42344e-09
-1.33213e-09
-3.21529e-09
-1.02532e-10
-5.18137e-09
9.40327e-10
4.34358e-09
-4.3035e-09
6.49914e-09
-6.61454e-09
-4.39754e-09
1.78349e-09
3.78309e-09
3.75101e-09
5.94919e-09
-6.54698e-09
-3.15322e-09
5.31145e-10
-3.30456e-09
2.57403e-10
-6.4203e-10
-2.55485e-09
2.64531e-09
-3.06937e-09
2.97891e-09
2.15799e-09
-2.96137e-09
-1.64378e-09
-3.85978e-09
-2.63878e-09
4.25504e-09
-1.97387e-10
5.80732e-09
6.8136e-10
-6.29129e-09
3.91798e-09
-3.97774e-09
-3.58774e-09
-3.27325e-09
3.61113e-09
-5.65117e-09
5.31329e-09
5.09435e-09
-3.8452e-09
-5.1024e-09
-3.206e-09
3.19734e-09
3.62004e-09
-4.02888e-09
6.14645e-11
4.04866e-09
-8.12505e-11
3.12669e-09
1.50062e-10
-3.46593e-09
1.89174e-10
5.93807e-09
-2.79281e-09
-2.41129e-09
2.65009e-09
-1.77145e-09
-4.85377e-09
7.93429e-10
4.26757e-10
4.74437e-09
-1.07825e-09
4.96124e-09
-4.08416e-09
2.22723e-09
-3.10431e-09
2.14571e-10
-4.05377e-11
-9.25138e-09
2.3204e-09
-1.90621e-09
8.83719e-09
-2.46165e-09
2.7229e-09
1.52851e-12
-8.6559e-10
-5.33378e-09
6.19784e-09
2.32774e-12
-4.66266e-09
-7.52654e-10
5.41299e-09
9.99492e-14
-6.32554e-10
-3.93711e-09
4.56956e-09
2.28003e-13
-6.62459e-10
-4.11857e-09
4.7808e-09
1.46382e-13
-6.45396e-10
-4.01498e-09
4.66023e-09
3.59407e-09
-3.49335e-09
6.65399e-11
-1.67253e-10
3.75964e-09
-3.65458e-09
6.98484e-11
-1.74911e-10
3.66509e-09
-3.56251e-09
6.79674e-11
-1.70544e-10
2.30946e-09
-2.32716e-09
3.63259e-09
-3.6149e-09
-2.59129e-09
-3.19176e-09
3.37175e-09
2.55184e-10
-3.32325e-09
8.93735e-11
-3.40179e-09
7.70296e-10
-9.94966e-10
3.62646e-09
3.69328e-10
3.94425e-09
-3.78955e-09
3.83537e-09
-3.04662e-10
4.4209e-09
-4.34903e-09
3.12618e-09
-3.19149e-09
3.37152e-09
-6.45018e-10
-2.79664e-09
2.84451e-09
5.97144e-10
-3.64088e-09
3.80657e-09
-6.06996e-10
2.76136e-09
-5.82279e-09
7.3771e-09
-4.31566e-09
3.64021e-10
-4.7579e-09
-8.25275e-11
3.54914e-09
4.67295e-10
7.85067e-09
-6.96914e-09
-2.40766e-09
-2.48336e-09
-6.06309e-09
2.80904e-09
8.16643e-09
-1.24013e-10
-8.37598e-09
3.33563e-10
-8.59101e-10
-4.06255e-09
1.28077e-09
9.88536e-11
-1.72575e-10
-9.3541e-11
1.67262e-10
2.72186e-10
5.13552e-09
1.14462e-09
-6.55232e-09
-1.85566e-09
-4.88265e-10
2.35226e-09
-8.32973e-12
-1.8321e-09
2.7874e-09
4.86751e-09
-4.41618e-09
-3.7509e-09
-3.57628e-10
7.35188e-12
4.10118e-09
-2.38336e-10
-3.33528e-10
3.39968e-10
-1.18478e-09
-3.91244e-09
1.29268e-09
6.92574e-09
-2.56748e-09
-6.58439e-09
2.22613e-09
5.14572e-09
2.35264e-10
-6.40753e-09
1.02655e-09
4.23839e-09
5.46774e-10
-4.78516e-09
-2.89942e-09
5.48272e-09
2.5108e-09
-5.09409e-09
-2.40163e-10
1.62322e-10
3.5354e-09
2.92071e-09
-3.14838e-09
-3.30773e-09
5.57315e-09
-7.3446e-09
-2.35655e-09
5.44203e-10
2.69427e-09
-8.81921e-10
3.72738e-09
-3.48975e-09
1.02834e-10
-3.40465e-10
-2.36312e-09
3.63083e-09
3.461e-09
-4.72871e-09
-2.19403e-09
3.49958e-09
3.25787e-09
-4.56341e-09
-2.64482e-09
4.05439e-09
3.87878e-09
-5.28835e-09
-2.05415e-09
3.17306e-09
3.01008e-09
-4.12898e-09
2.31132e-10
-4.09208e-09
4.26872e-09
-4.07774e-10
-3.03381e-09
4.80172e-09
4.52092e-09
-6.28883e-09
3.69939e-09
5.57207e-09
-4.33212e-09
-4.93933e-09
-3.10988e-09
6.92844e-09
3.10718e-09
-4.76846e-09
4.7739e-09
-3.13319e-10
3.35161e-10
-1.1547e-11
-4.84398e-09
4.82879e-09
2.67404e-11
1.48076e-09
-3.62145e-09
-1.82198e-09
3.96266e-09
6.34593e-09
-2.55625e-09
-6.35716e-09
4.03894e-09
-3.93186e-09
7.44547e-11
-1.81541e-10
1.74637e-10
3.73351e-10
-2.21669e-09
-3.19418e-09
2.97373e-09
2.43714e-09
3.59563e-09
-5.35839e-09
-3.73742e-09
5.50019e-09
-1.37037e-10
5.97815e-10
-9.25217e-12
-3.04878e-11
3.42444e-10
-3.02704e-10
-3.50988e-09
3.49997e-09
7.79832e-12
2.10889e-12
-3.31958e-09
3.71448e-09
-3.84152e-09
5.23688e-09
2.47345e-09
-5.45538e-09
-2.25496e-09
3.29911e-09
5.63716e-09
-2.92966e-09
-2.95056e-09
3.41857e-09
-4.07651e-09
-8.25346e-10
1.49607e-09
3.40578e-09
-5.23058e-09
-1.05697e-09
1.91002e-09
4.37753e-09
-4.52988e-09
-9.22471e-10
1.6884e-09
3.76395e-09
-4.67317e-09
-9.44917e-10
1.7096e-09
3.90849e-09
-6.25752e-09
-1.2724e-09
2.32121e-09
5.20872e-09
2.32919e-10
2.40201e-10
-5.79927e-09
-2.73599e-09
2.70536e-09
-3.50971e-09
3.54035e-09
-3.60268e-09
-1.29096e-09
-2.31942e-09
5.28204e-09
3.77496e-09
-6.73757e-09
3.86042e-09
-4.23174e-09
-2.82588e-09
6.1554e-10
4.16167e-10
-8.24691e-10
-2.07015e-10
4.09516e-09
4.37724e-09
-3.69827e-09
-3.99855e-09
-5.53792e-09
5.50691e-09
-3.53327e-11
6.63359e-11
5.3948e-09
-3.64032e-09
2.72552e-09
-3.69302e-09
-8.05277e-11
3.81728e-09
-4.37391e-11
3.23479e-09
-5.41917e-10
-2.84758e-09
-2.52234e-09
2.63418e-09
6.01709e-09
1.56394e-09
-3.17355e-09
-4.40748e-09
6.33239e-09
1.37622e-09
-2.62444e-09
-5.08417e-09
2.61281e-09
-6.03812e-09
2.69984e-09
-1.78782e-09
-3.16756e-09
2.25554e-09
-2.66553e-09
-3.19563e-09
3.33883e-09
-1.14616e-10
-5.71925e-09
4.49327e-09
1.3406e-09
1.45003e-09
2.54119e-10
3.90069e-09
2.76274e-10
-2.48839e-09
7.60544e-09
-4.62018e-09
-5.92743e-09
-2.56574e-09
-1.81845e-10
3.2002e-09
-1.01164e-09
1.81308e-09
4.70521e-09
-8.84262e-10
1.58615e-09
4.10192e-09
-7.82102e-10
1.40306e-09
3.61892e-09
-7.47817e-10
1.3415e-09
3.45757e-09
-7.62521e-10
1.36794e-09
3.52675e-09
-7.17297e-10
-6.33518e-10
-5.65971e-09
7.01052e-09
-2.73281e-09
2.70665e-09
1.8197e-10
-1.55813e-10
-3.63888e-09
7.16709e-10
3.11093e-09
-1.88753e-10
-3.14557e-09
4.41217e-09
4.38264e-09
-5.64924e-09
-2.31376e-09
3.26918e-09
3.22483e-09
-4.18024e-09
-2.35991e-09
3.33302e-09
3.28903e-09
-4.26214e-09
-2.42138e-09
3.41794e-09
3.37453e-09
-4.3711e-09
-2.74295e-09
3.8613e-09
3.82242e-09
-4.94077e-09
2.90145e-09
2.40892e-09
-9.33127e-10
2.71326e-09
-3.40675e-09
3.66426e-09
5.60183e-09
-5.17242e-10
3.04538e-10
-5.38913e-09
3.89059e-09
1.62794e-10
-3.68937e-09
-3.68579e-09
-8.67263e-10
4.10638e-09
-5.87833e-09
-4.44699e-09
6.21894e-09
4.70699e-10
-6.22373e-09
6.86744e-10
1.4161e-09
-8.74249e-10
-5.44508e-09
4.90322e-09
-1.49808e-10
-3.66996e-09
3.81977e-09
-2.49288e-09
-1.69666e-09
6.10056e-09
-5.51162e-09
-1.75572e-09
-2.99955e-09
3.37436e-09
1.38091e-09
3.34937e-09
-3.24488e-09
2.97463e-09
-5.21378e-09
7.7288e-10
4.62215e-09
-1.8125e-10
-2.32931e-09
9.3524e-10
-5.73544e-09
5.07239e-09
2.32684e-10
-1.21135e-08
-6.75205e-09
1.1477e-08
3.13924e-09
-2.76636e-09
3.48754e-09
1.11046e-09
3.10734e-09
3.41563e-09
-2.52633e-09
3.60633e-09
-4.49563e-09
3.13347e-09
1.21515e-08
-1.18503e-09
-1.40999e-08
-5.39186e-09
3.57042e-09
4.93576e-09
-1.45779e-09
1.53178e-09
3.18323e-09
-3.25722e-09
1.92828e-09
-2.95294e-09
5.51844e-09
7.85001e-10
9.69484e-10
-9.74086e-10
-7.804e-10
-5.27957e-09
-7.69879e-09
5.49678e-09