/*--------------------------------*- C++ -*----------------------------------*\
  =========                 |
  \\      /  F ield         | OpenFOAM: The Open Source CFD Toolbox
   \\    /   O peration     | Website:  https://openfoam.org
    \\  /    A nd           | Version:  8
     \\/     M anipulation  |
\*---------------------------------------------------------------------------*/
FoamFile
{
    version     2.0;
    format      ascii;
    class       surfaceScalarField;
    location    "0.2";
    object      phi;
}
// * * * * * * * * * * * * * * * * * * * * * * * * * * * * * * * * * * * * * //

dimensions      [0 3 -1 0 0 0 0];

internalField   nonuniform List<scalar> 
5897
(
4.72733e-10
-2.01007e-10
8.66809e-10
-1.13854e-09
-1.12805e-08
1.20224e-08
-1.12591e-08
1.05172e-08
9.62267e-09
-9.28771e-09
-1.27502e-10
-2.07461e-10
1.78775e-10
-1.31793e-09
1.20672e-09
-6.75614e-11
1.24328e-08
-1.05729e-08
1.64267e-10
-2.02422e-09
-6.85446e-09
-2.46075e-09
6.06789e-09
3.24731e-09
-4.71899e-09
4.62857e-10
-6.91904e-10
4.94804e-09
1.19855e-08
6.06355e-09
-2.26373e-10
-1.78227e-08
-8.7295e-09
1.97432e-09
-6.06582e-10
7.36176e-09
2.40624e-09
9.37714e-09
-9.58384e-09
-2.19954e-09
-1.55663e-11
6.82875e-10
-7.72094e-10
1.04785e-10
-1.17257e-09
9.03931e-09
1.48995e-09
1.71472e-08
1.30409e-09
-1.51656e-08
-3.28576e-09
1.37121e-08
6.73215e-10
-1.95248e-09
1.61737e-09
2.06296e-10
-3.71344e-10
-1.45232e-09
-1.89419e-08
1.45088e-08
1.12291e-08
-6.79601e-09
4.42241e-09
5.18751e-09
-5.95445e-09
-3.65548e-09
-1.24893e-10
5.65514e-10
1.34433e-10
-5.75054e-10
7.26084e-11
-3.96621e-10
-1.01017e-10
4.25029e-10
1.00209e-08
-3.47702e-09
-1.00671e-08
3.52325e-09
-1.40124e-08
1.66171e-08
-4.571e-09
1.96634e-09
5.52018e-09
-9.03198e-09
-3.34267e-09
1.05083e-08
-5.50096e-09
-7.24119e-09
2.23386e-09
-1.95359e-10
5.49997e-10
-1.51182e-08
1.47635e-08
7.62072e-09
-3.56848e-09
-1.01466e-08
6.09439e-09
-9.74835e-09
-7.23323e-09
5.75906e-09
1.12225e-08
-8.24756e-10
2.55085e-09
1.3082e-09
-3.0343e-09
-1.45884e-08
1.94365e-08
-9.74522e-09
4.89706e-09
2.86547e-10
-1.32047e-10
-2.27971e-10
7.34708e-11
-1.52574e-08
3.06929e-09
-6.75382e-09
-9.10693e-09
1.47628e-08
3.96148e-09
-9.61734e-09
-5.485e-09
1.03083e-08
-1.29701e-08
8.14687e-09
-1.20778e-08
3.16468e-10
3.7387e-10
1.13874e-08
1.14973e-08
7.31653e-09
-2.43604e-10
-1.85702e-08
-8.58824e-09
-1.03357e-08
5.34962e-09
1.35743e-08
-9.23393e-09
1.31091e-10
9.10284e-09
4.42617e-09
-5.23007e-09
-3.52994e-09
4.33384e-09
1.64743e-08
-1.55351e-08
-3.44447e-09
2.50525e-09
5.73764e-09
-5.96618e-09
7.4134e-10
-5.12797e-10
9.17296e-09
-1.20979e-08
-8.66849e-09
1.15934e-08
-1.12541e-09
9.48589e-10
2.08288e-09
-1.90606e-09
2.23031e-10
-5.48786e-09
-1.45319e-10
5.41015e-09
2.15976e-09
-3.14093e-09
1.03379e-08
-2.2316e-09
3.6346e-09
-3.93199e-09
2.52898e-09
-1.50704e-08
1.65363e-08
-2.94245e-09
1.47657e-09
1.88818e-10
-1.85436e-09
-3.45881e-10
2.01142e-09
8.05884e-09
1.28041e-09
-1.77744e-09
-7.5618e-09
6.39562e-11
5.71136e-11
-1.2107e-10
-1.62226e-10
7.3022e-11
4.01508e-10
-3.12304e-10
-1.66511e-09
2.53183e-09
-1.80772e-08
1.72105e-08
-6.19657e-09
4.41849e-09
-4.53513e-10
-5.97806e-09
-1.95344e-08
6.1163e-09
1.93961e-08
1.84399e-09
-4.14749e-09
9.5692e-09
-7.2657e-09
6.3232e-09
-7.10769e-09
-1.67625e-09
-2.43369e-09
1.07533e-09
1.63379e-10
9.28426e-09
-9.44764e-09
5.70494e-10
8.50631e-09
-9.0768e-09
-1.43775e-08
8.53965e-11
1.42921e-08
9.22877e-10
-1.36679e-08
1.9538e-10
1.25496e-08
8.04007e-09
-6.12177e-09
4.87942e-10
-1.58007e-08
6.02963e-11
1.57404e-08
-1.50657e-08
5.77947e-11
1.50079e-08
-1.44689e-08
6.54353e-12
1.44623e-08
1.21973e-08
-7.70782e-09
-4.48951e-09
-6.19562e-11
-1.50086e-08
1.50684e-08
2.18098e-12
-5.89943e-11
-1.43139e-08
1.43712e-08
1.71716e-12
-1.96865e-10
3.50916e-10
-1.35074e-09
1.19669e-09
4.97706e-10
5.8816e-09
1.66487e-10
-6.54579e-09
-2.60814e-10
1.43675e-08
2.15579e-10
-1.43223e-08
-1.44614e-08
-1.31732e-11
1.44746e-08
5.62203e-10
-1.76104e-09
1.53873e-09
-3.39898e-10
-6.81254e-11
1.43306e-08
-8.82822e-12
-1.42537e-08
1.42117e-08
-1.40791e-08
-3.12631e-10
1.79968e-10
-1.44366e-08
-1.60094e-11
1.44526e-08
1.52801e-09
-2.8341e-09
3.49786e-09
-2.19178e-09
1.28938e-10
1.43006e-08
-2.1783e-10
-1.5585e-09
3.92177e-10
2.69434e-09
-1.30855e-11
1.4273e-08
-4.03663e-11
-1.42195e-08
2.15662e-09
5.0774e-09
-4.17739e-09
-3.05663e-09
2.5909e-09
-2.33726e-09
1.87044e-09
-2.12408e-09
1.71051e-08
2.81067e-09
-3.37943e-09
6.52029e-10
-1.62854e-09
1.53871e-09
-1.44086e-08
-1.58706e-11
1.44245e-08
-9.04466e-11
-1.52188e-08
1.51121e-08
1.97168e-10
-3.52108e-09
-8.49945e-09
3.24189e-09
8.77864e-09
5.44726e-14
1.42477e-08
-5.03706e-11
-1.41974e-08
-7.6779e-09
5.41309e-09
-4.23355e-09
6.49836e-09
-1.00433e-11
1.49043e-08
-2.59628e-11
-1.48683e-08
-9.29454e-12
1.42113e-08
-2.50714e-11
-1.4177e-08
-2.78643e-09
-9.58683e-09
4.69536e-09
4.57837e-12
1.42285e-08
-5.04223e-11
-1.41827e-08
-1.43805e-08
-1.63008e-11
1.43968e-08
-1.43591e-08
1.43753e-10
-3.45931e-10
1.45613e-08
-1.57758e-08
-5.29466e-12
1.57811e-08
-1.50418e-08
-5.13953e-12
1.50469e-08
1.46367e-09
3.48419e-12
1.42042e-08
-5.06407e-11
-1.41571e-08
-1.51367e-11
1.48843e-08
-2.58079e-11
-1.48433e-08
-1.41869e-11
1.41917e-08
-2.48371e-11
-1.41527e-08
3.05219e-09
3.69684e-09
-4.59242e-09
5.09133e-09
4.05844e-09
-6.09758e-09
-1.74016e-10
1.51669e-08
8.00445e-11
-1.50729e-08
-1.66724e-10
1.44652e-08
7.75628e-11
-1.43761e-08
-2.95032e-09
1.51126e-09
-1.25733e-08
1.99236e-09
7.67279e-09
-2.7628e-09
-6.90236e-09
-1.2607e-08
3.60753e-09
-6.25792e-09
1.38032e-10
3.81368e-10
-4.44585e-10
-7.48152e-11
1.02812e-12
-1.41401e-08
1.41873e-08
-4.82129e-11
-1.57393e-08
-6.87301e-12
1.57461e-08
-1.5007e-08
-6.62363e-12
1.50136e-08
-1.43372e-11
-1.48224e-08
1.4872e-08
-3.52223e-11
-1.35213e-11
-1.41326e-08
1.41798e-08
-3.36756e-11
2.35903e-10
-5.4372e-09
-4.01705e-10
5.603e-09
-3.24659e-11
1.50136e-08
-1.49442e-08
-3.68723e-11
-3.09101e-11
1.43185e-08
-1.4252e-08
-3.5513e-11
7.68683e-09
1.12157e-08
-1.79261e-08
-9.76454e-10
-8.56312e-09
-5.85535e-09
1.08974e-08
-2.25985e-10
1.57072e-08
-1.53258e-08
-1.55407e-10
-2.17507e-10
1.4977e-08
-1.46147e-08
-1.44884e-10
-1.57136e-08
-3.70992e-12
1.57173e-08
-1.49823e-08
-3.66148e-12
1.4986e-08
9.07617e-09
8.5112e-10
-5.50156e-10
6.23712e-09
-7.52996e-09
7.31575e-09
-6.02292e-09
-1.43991e-11
1.49711e-08
-1.49293e-08
-2.73505e-11
-1.34128e-11
1.42772e-08
-1.42373e-08
-2.65255e-11
3.76672e-09
-3.37509e-09
-6.8189e-10
2.90261e-10
5.03031e-10
2.21365e-09
-2.2204e-09
-4.96275e-10
1.41325e-12
1.48045e-08
-1.57505e-11
-1.47902e-08
1.772e-12
1.41151e-08
-1.54413e-11
-1.41014e-08
-1.4351e-08
-4.47643e-09
1.5885e-08
-1.29131e-11
1.49591e-08
-1.49271e-08
-1.90786e-11
-1.18809e-11
1.42651e-08
-1.42345e-08
-1.87063e-11
4.46192e-09
3.80555e-09
-3.17614e-09
-9.23518e-12
1.49546e-08
-1.49284e-08
-1.69151e-11
-8.44397e-12
1.42604e-08
-1.42355e-08
-1.64045e-11
-6.58115e-10
-5.09815e-10
3.59269e-10
8.08662e-10
-5.19501e-09
4.04728e-09
5.15268e-09
-4.00496e-09
1.01011e-09
-4.00029e-10
-5.98296e-10
-1.17824e-11
-9.13155e-12
1.4795e-08
-1.30832e-11
-1.47728e-08
-8.2488e-12
1.41045e-08
-1.45032e-11
-1.40818e-08
1.21581e-11
1.40771e-08
-4.66678e-11
-1.40426e-08
-1.42746e-08
-1.90943e-11
1.42936e-08
3.45232e-09
2.31196e-09
-3.24008e-09
-2.52421e-09
-5.53222e-12
1.4934e-08
-1.17572e-11
-1.49167e-08
-4.90607e-12
1.42402e-08
-1.16108e-11
-1.42237e-08
-1.00975e-08
-1.26494e-08
1.14663e-08
2.71538e-10
-3.11145e-09
1.62924e-12
2.83828e-09
-1.56538e-08
-1.49417e-11
1.56688e-08
-1.49257e-08
-1.44802e-11
1.49402e-08
-1.58626e-08
-1.51247e-08
8.47888e-10
1.96047e-09
-2.30533e-09
9.06444e-09
-8.42131e-09
-1.21939e-09
5.76264e-10
-4.44462e-09
-4.113e-09
4.69773e-09
3.85989e-09
2.62787e-09
4.06698e-10
-2.76303e-09
-2.12458e-11
-1.47653e-08
1.48008e-08
-1.42729e-11
-1.11107e-11
-1.40663e-08
1.40992e-08
-2.17699e-11
3.6274e-10
-4.27837e-10
-1.4014e-08
-1.44456e-08
-1.97621e-09
1.99351e-09
1.32559e-11
1.406e-08
-4.62806e-11
-1.4027e-08
-1.5733e-08
1.56721e-08
6.08611e-11
-1.4905e-08
1.48966e-08
8.46031e-12
-1.32841e-08
-3.50055e-09
-1.41519e-08
1.3891e-08
-1.42455e-08
-2.10797e-11
1.42666e-08
-1.0103e-09
8.11427e-10
4.97112e-10
-2.98235e-10
-4.04713e-09
-6.05942e-09
3.32004e-09
6.78651e-09
-1.4482e-08
-1.56283e-08
-6.57096e-12
1.56349e-08
-1.49005e-08
-6.59872e-12
1.49071e-08
8.53678e-09
1.42441e-09
-1.90236e-09
1.40547e-08
-1.39608e-08
-5.25134e-11
-4.14197e-11
1.13635e-11
1.40413e-08
-3.07419e-11
-1.40219e-08
-1.81645e-08
1.04992e-08
-1.44614e-08
-1.48553e-08
1.48856e-08
-3.02767e-11
-1.57126e-08
1.6047e-08
-3.34448e-10
7.29438e-10
1.7889e-09
-1.67045e-09
-1.31193e-08
7.07725e-10
-6.05605e-09
-1.24898e-08
6.61552e-10
-5.7551e-09
-1.21154e-08
6.6715e-10
-5.83962e-09
2.1243e-11
1.41314e-08
-1.41052e-08
-4.74637e-11
-1.42249e-08
-1.53178e-11
1.42403e-08
1.43159e-08
-1.4187e-08
9.98033e-09
1.44352e-09
-2.3594e-09
-9.49935e-12
1.40746e-08
-2.94725e-12
-1.40621e-08
-1.4432e-08
-1.56237e-08
-5.47262e-13
1.56242e-08
-1.48953e-08
-1.23339e-13
1.48954e-08
3.44978e-11
1.84605e-09
-1.22852e-09
1.91135e-11
1.41083e-08
-1.40889e-08
-3.84546e-11
-3.81113e-09
6.14168e-09
3.19752e-09
-5.52807e-09
1.40389e-08
-1.40607e-08
7.96684e-12
1.38802e-11
3.92541e-10
-1.9055e-10
-4.28611e-10
2.2662e-10
1.76e-12
1.48368e-08
-3.76698e-11
-1.48009e-08
1.90239e-12
1.41461e-08
-3.58696e-11
-1.41121e-08
3.78107e-09
-4.11476e-10
3.97129e-10
1.27204e-10
-1.58602e-08
9.68676e-13
-1.4906e-08
-1.56696e-08
1.54955e-08
-1.49399e-08
1.47732e-08
-1.44051e-08
-1.47725e-08
1.4802e-08
-2.9488e-11
2.60714e-11
1.40842e-08
-1.40674e-08
-4.29448e-11
6.26078e-11
-1.46187e-08
1.46832e-08
1.60034e-12
-1.40923e-08
1.40917e-08
-1.42481e-08
3.66919e-12
1.42445e-08
-7.72731e-12
1.40912e-08
-2.88172e-11
-3.29974e-11
7.41371e-11
1.2041e-10
-1.6155e-10
-1.57859e-08
-1.50511e-08
-2.59617e-09
4.25331e-09
8.36371e-09
6.07305e-10
1.52265e-09
-1.40052e-09
1.18037e-08
-1.27282e-08
2.74331e-09
-2.39303e-09
-7.51872e-09
7.16844e-09
3.44968e-11
1.40591e-08
-4.7184e-11
-1.40464e-08
-1.9336e-11
-1.4836e-08
-1.47745e-08
-9.38112e-10
-1.43795e-08
1.5854e-08
-1.58864e-08
1.51168e-08
-1.51477e-08
-4.15518e-11
-1.4057e-08
1.40793e-08
-1.57544e-08
-1.50211e-08
-4.22365e-09
-8.63495e-09
8.02244e-09
4.83616e-09
-2.12279e-09
5.36939e-09
7.26168e-09
2.4538e-09
5.6764e-09
-5.5249e-09
-2.6053e-09
-1.58688e-08
1.58544e-08
-1.51309e-08
1.51175e-08
1.44197e-08
-1.44037e-08
-4.88998e-11
3.29351e-11
-3.49174e-09
7.47872e-09
-6.50126e-09
2.51428e-09
-1.14372e-11
-1.4761e-08
-1.43126e-08
1.0658e-11
1.4302e-08
4.10324e-09
-4.85372e-09
-7.81264e-09
-4.41955e-11
1.40716e-08
-1.44178e-08
1.43535e-08
2.20616e-11
4.22078e-11
1.58286e-08
-1.58415e-08
1.50929e-08
-1.51047e-08
-1.68869e-10
1.48507e-10
1.2268e-09
-1.20644e-09
-1.5728e-08
-1.49958e-08
-2.20095e-10
-7.27377e-09
6.76765e-09
7.26211e-10
1.50684e-10
1.4073e-08
-1.08705e-10
-1.41149e-08
8.47361e-09
-7.17318e-09
-1.67426e-08
1.54422e-08
9.19443e-09
-7.2003e-09
-1.87945e-08
1.68004e-08
8.74927e-09
-6.8526e-09
-1.79103e-08
1.60136e-08
-1.43647e-08
2.21102e-11
3.97321e-11
1.43029e-08
5.44476e-09
-7.23313e-09
-1.51113e-09
3.2995e-09
1.58118e-08
-1.5821e-08
1.50766e-08
-1.50851e-08
-1.45395e-08
1.44913e-08
-4.22384e-11
1.50465e-08
2.8274e-11
-7.74709e-11
-1.49973e-08
1.50377e-08
-1.52637e-08
1.43334e-08
-1.45509e-08
-1.0172e-08
1.14903e-08
-1.202e-08
1.07017e-08
1.51093e-08
7.4922e-11
-1.37793e-10
-1.58059e-08
1.58004e-08
-1.50705e-08
1.50656e-08
8.33205e-11
-8.14626e-11
1.79297e-10
-1.09701e-10
-3.3321e-10
2.63614e-10
-1.04186e-11
1.47738e-08
-2.02855e-11
-1.47431e-08
6.395e-13
1.40756e-08
-1.46907e-11
-1.40616e-08
-1.43317e-08
1.43827e-08
-3.97057e-11
-1.13478e-11
-1.50533e-08
1.50769e-08
-2.11862e-11
-2.37558e-12
-4.23524e-12
3.49103e-11
-1.43624e-08
-2.33124e-11
7.93226e-11
2.72965e-10
3.23999e-10
-2.04422e-10
-1.43558e-08
1.4382e-08
-3.79394e-11
1.17583e-11
-1.50389e-08
1.50719e-08
-4.70125e-11
1.40146e-11
-6.74831e-09
7.04557e-09
2.44606e-09
-1.56524e-08
-1.49239e-08
-1.42624e-08
2.62869e-11
-1.4068e-08
-3.96422e-11
1.40813e-08
-2.45744e-09
8.01086e-09
-9.77707e-09
-1.43432e-08
1.43736e-08
-5.04126e-11
1.99805e-11
-1.50324e-08
1.50691e-08
-5.4368e-11
1.7682e-11
1.4502e-09
-1.24207e-09
-3.77002e-10
-1.43327e-08
1.43583e-08
-4.19898e-11
1.64583e-11
-1.50292e-08
1.50573e-08
-4.68274e-11
1.87415e-11
6.2498e-11
-7.36751e-11
1.43598e-08
-1.43189e-08
-6.46787e-11
2.36947e-11
1.50601e-08
-1.5017e-08
-6.71518e-11
2.40471e-11
1.77723e-08
-7.10242e-09
8.27373e-10
-3.37029e-11
6.06443e-11
-1.59387e-11
5.39497e-11
1.40385e-08
2.70124e-11
-1.40393e-08
-1.43608e-08
1.4382e-08
-1.43054e-08
1.43404e-08
-6.93859e-11
3.43448e-11
-1.50037e-08
1.50403e-08
-7.23863e-11
3.58201e-11
1.40788e-08
8.53438e-12
-4.87963e-11
-1.56374e-08
-1.49088e-08
-1.42323e-08
-1.42894e-08
1.43235e-08
-5.6686e-11
2.25925e-11
-1.4987e-08
1.50225e-08
-5.89405e-11
2.33823e-11
1.92246e-08
-5.28652e-10
1.73296e-10
-1.88692e-08
-1.21657e-08
1.30386e-08
-1.46626e-08
1.37896e-08
-1.41723e-08
1.35403e-08
-1.50813e-08
1.57133e-08
-1.3537e-08
1.28722e-08
-1.43608e-08
1.50256e-08
1.40827e-08
2.18632e-11
-2.57623e-11
-1.40785e-08
1.4089e-08
-7.88778e-13
-9.71103e-12
-1.42711e-08
1.43114e-08
-5.96062e-11
1.93123e-11
-1.49679e-08
1.50101e-08
-6.19612e-11
1.97763e-11
1.43628e-08
-1.43437e-08
-1.42651e-08
1.43092e-08
-6.25638e-11
1.84073e-11
-1.49617e-08
1.50079e-08
-6.50568e-11
1.88217e-11
-6.18694e-12
4.49722e-11
-7.13184e-12
4.66049e-11
1.40711e-08
-1.406e-08
6.40529e-12
-1.75264e-11
-2.04736e-09
-7.54523e-09
7.19955e-09
-1.42683e-08
1.43229e-08
-8.08554e-11
2.6262e-11
-1.49653e-08
1.50225e-08
-8.43999e-11
2.71807e-11
5.08756e-11
-1.4207e-08
1.40593e-08
-1.40455e-08
9.51843e-12
-2.34072e-11
-3.46832e-09
3.18387e-09
1.69015e-08
1.18805e-11
-7.67352e-12
-1.42073e-08
1.4282e-08
-8.32741e-11
8.5768e-12
-1.49017e-08
1.49799e-08
-8.71938e-11
9.05477e-12
1.40736e-08
6.84042e-12
8.57301e-12
-1.56449e-08
-1.49064e-08
-3.4836e-09
-8.13197e-11
1.89825e-10
-1.42136e-08
1.43473e-08
-1.43212e-08
-1.4035e-08
1.40529e-08
9.24711e-12
-2.72137e-11
-1.41638e-08
1.42289e-08
-6.05417e-11
-4.54491e-12
-1.48566e-08
1.49247e-08
-6.33609e-11
-4.7371e-12
1.43692e-08
2.02173e-12
-1.13605e-11
1.50702e-08
1.89966e-12
-1.19805e-11
-3.81633e-12
4.46972e-11
-1.05806e-11
5.05027e-11
-1.41749e-08
1.42379e-08
-6.62293e-11
3.2663e-12
-1.48682e-08
1.49343e-08
-6.88803e-11
2.74365e-12
-1.39878e-08
1.40157e-08
-5.74809e-12
-2.22185e-11
-1.41891e-08
1.42562e-08
-8.26024e-11
1.5582e-11
-1.48834e-08
1.49538e-08
-8.61965e-11
1.57705e-11
-1.39919e-08
1.40069e-08
1.49745e-11
-3.00663e-11
-1.42902e-08
1.43247e-08
1.40584e-08
1.92978e-13
1.2471e-11
1.56973e-08
-1.56955e-08
1.49673e-08
-1.49654e-08
-1.41276e-08
1.4196e-08
-6.43528e-11
-4.04986e-12
-1.48196e-08
1.48911e-08
-6.7343e-11
-4.18141e-12
-1.56364e-09
1.39495e-09
8.25114e-09
-8.08246e-09
-1.39476e-08
1.3984e-08
-3.85288e-13
-3.60273e-11
-1.42576e-08
-1.41496e-08
1.42376e-08
-4.84646e-11
-3.95938e-11
-1.48427e-08
1.49351e-08
-5.05917e-11
-4.18155e-11
-2.71454e-09
1.50263e-09
-1.2456e-08
-4.22336e-12
4.36304e-11
-5.32418e-12
4.55689e-11
-4.08438e-12
1.76767e-11
-6.12106e-10
6.1191e-10
-1.3925e-08
1.3965e-08
-7.62098e-12
-3.23196e-11
-3.56219e-09
-2.26006e-09
2.98815e-09
-1.48095e-08
1.47905e-08
1.69685e-10
-1.5074e-10
-1.41178e-08
1.41023e-08
1.62318e-10
-1.4685e-10
-1.48857e-08
-6.95067e-09
7.23763e-09
1.45988e-08
1.71522e-09
-7.88705e-09
-5.97337e-10
6.76917e-09
1.4053e-08
-8.08483e-12
1.4477e-11
-1.39009e-08
1.39496e-08
-1.49383e-11
-3.37693e-11
-1.38828e-08
1.39303e-08
-1.10504e-11
-3.64489e-11
-1.43204e-08
-1.38623e-08
1.3918e-08
-2.89252e-11
-2.68332e-11
-1.20318e-09
-5.85824e-09
1.4351e-09
5.62633e-09
-1.38386e-08
1.39009e-08
-9.41103e-11
3.17935e-11
3.39717e-11
2.98454e-11
3.5169e-11
3.1332e-11
-7.4308e-09
7.09866e-09
-6.99448e-12
1.99808e-11
8.49293e-09
-1.05021e-08
1.40316e-08
-1.51136e-08
-3.21028e-09
1.28389e-08
-1.40075e-08
2.35362e-11
-3.81462e-12
5.67038e-09
2.67484e-09
-5.83227e-09
-2.51295e-09
9.34629e-09
5.82695e-09
-5.21508e-09
-9.95816e-09
1.08614e-11
4.01453e-11
1.16571e-11
4.16414e-11
-1.05523e-09
-7.98707e-09
6.2098e-10
4.76268e-09
-1.33646e-08
1.58591e-08
-7.25726e-09
1.68908e-10
-1.87202e-10
-1.92903e-10
2.11197e-10
1.92932e-10
-9.04901e-10
5.38543e-11
-1.42704e-08
6.44678e-11
-1.36724e-12
-1.49676e-08
6.6913e-11
-1.00705e-12
-9.30402e-12
2.7293e-11
3.21924e-10
-3.13531e-10
-1.39619e-08
2.5954e-11
-1.17105e-11
8.19323e-12
4.4158e-11
8.78165e-12
4.58236e-11
4.52017e-10
-3.28838e-10
-2.85406e-10
-1.56459e-08
1.56355e-08
-1.48935e-08
1.48941e-08
1.15908e-10
-1.42323e-08
5.56637e-11
-1.42218e-08
3.98216e-11
1.81543e-11
-1.4917e-08
4.11083e-11
1.93412e-11
4.8081e-10
-4.39698e-09
-8.02824e-10
1.25612e-11
3.28747e-11
-1.43319e-08
5.89119e-11
1.42452e-08
2.77322e-11
-1.24338e-09
7.436e-09
-1.64703e-08
1.02777e-08
1.17909e-09
-1.56078e-09
-5.01956e-09
5.40125e-09
-1.39407e-08
2.65238e-11
-1.08856e-11
-1.40529e-08
-4.2663e-11
2.75761e-11
3.87243e-10
-4.39761e-10
3.81656e-12
4.25699e-11
4.22099e-12
4.41898e-11
-1.45064e-08
-4.94406e-10
1.80701e-08
-1.39192e-08
2.6365e-11
-8.09081e-12
4.37672e-12
1.95077e-11
7.3501e-12
3.35204e-11
7.89697e-12
3.47777e-11
7.50133e-09
-1.75098e-09
-3.01628e-10
2.41836e-09
1.56556e-08
-1.41879e-08
5.04265e-11
9.80997e-12
-1.48825e-08
5.21193e-11
1.07501e-11
1.27724e-08
-1.39225e-08
-3.83328e-09
4.98342e-09
-1.39003e-08
2.90212e-11
-1.15451e-11
1.41077e-11
3.09892e-11
2.73357e-11
2.51984e-11
2.87386e-11
2.60984e-11
3.39438e-10
3.65723e-10
-4.32196e-10
7.23552e-09
-1.18633e-09
-8.32304e-10
-5.21689e-09
-1.38796e-08
2.08792e-11
-3.5613e-12
-6.4386e-09
2.51375e-09
-6.13519e-09
2.39463e-09
-5.97837e-09
2.33656e-09
3.70627e-10
-2.06482e-10
1.07886e-09
-1.243e-09
-4.09199e-10
-5.25721e-10
1.5912e-08
-4.33549e-10
-5.47548e-10
1.66883e-08
-4.27307e-10
-1.08358e-09
2.90513e-10
1.22038e-09
1.45608e-11
2.87967e-11
-2.43648e-12
6.26233e-11
-2.65218e-12
6.55258e-11
-1.41797e-08
-5.14447e-11
1.13344e-10
-1.48744e-08
-5.32555e-11
1.18226e-10
1.80691e-09
-1.79343e-09
-7.40837e-10
7.2735e-10
-1.15752e-08
8.62311e-09
1.24786e-08
-1.09924e-08
-1.48619e-09
-8.11876e-09
7.6765e-09
-1.38123e-09
6.52562e-10
1.11284e-08
-1.03998e-08
7.2788e-11
-2.22205e-10
7.29659e-11
-2.31875e-10
8.82345e-11
-8.34103e-09
4.15844e-10
7.83696e-09
-1.38687e-08
-2.186e-12
3.235e-11
-3.69146e-12
8.67592e-12
-3.40079e-12
7.92419e-12
1.22645e-08
-1.79912e-08
4.13575e-09
1.59091e-09
1.1706e-08
-1.71449e-08
3.93753e-09
1.50142e-09
1.03201e-08
-1.31765e-08
9.14596e-10
1.94183e-09
-9.10239e-10
2.88432e-10
1.15164e-09
-5.29829e-10
-5.23658e-12
3.20832e-11
-5.04087e-12
3.02123e-11
-1.04333e-11
4.01795e-11
-1.01819e-11
3.80435e-11
-2.24457e-12
2.97149e-11
-2.27477e-12
2.80939e-11
-1.50809e-11
2.06295e-11
-1.4748e-11
1.94523e-11
2.09598e-11
2.4841e-11
-1.29269e-11
6.69118e-11
-1.35819e-11
7.00629e-11
1.36768e-08
-1.09622e-08
8.93382e-09
-1.16483e-08
1.30362e-08
-1.04578e-08
8.53817e-09
-1.11166e-08
-9.01872e-09
-9.10806e-09
-8.68364e-09
1.30503e-10
-2.18668e-08
2.34966e-08
-1.76032e-09
3.066e-11
-1.62117e-11
2.85499e-11
-1.51249e-11
-1.72642e-08
6.42085e-09
1.48301e-08
-3.98674e-09
2.661e-09
8.43438e-09
-6.70258e-09
-4.3928e-09
1.4729e-09
-1.21982e-09
3.54227e-10
8.07577e-12
4.06869e-11
8.52586e-12
4.23674e-11
4.06391e-10
5.64897e-10
-6.31851e-10
1.75033e-08
-1.91684e-08
1.72091e-08
2.94252e-10
1.74544e-10
1.74632e-09
-3.03494e-10
9.3878e-12
-8.85345e-13
1.22665e-11
-2.96527e-12
2.49168e-11
2.43714e-11
-3.77005e-09
3.67728e-09
-7.04483e-09
7.13759e-09
-8.17591e-09
2.20685e-11
-1.18125e-09
9.33509e-09
-5.96738e-09
2.79869e-09
5.82969e-09
-1.58283e-08
-2.59646e-09
-1.50917e-08
-2.46241e-09
-6.0946e-12
-2.57557e-12
5.09107e-12
-1.99548e-12
-6.10928e-09
9.35301e-09
-8.74469e-09
2.02231e-11
4.80651e-11
2.12693e-11
5.0101e-11
-1.09527e-12
-3.61082e-12
-1.50559e-08
1.49377e-08
2.34111e-10
-3.52066e-12
-4.72099e-12
-1.59664e-09
2.54554e-09
1.38992e-09
-2.33883e-09
3.94564e-10
2.21319e-09
8.2999e-10
7.73791e-10
-1.19657e-09
-4.07214e-10
5.45103e-10
-5.28669e-10
-4.50377e-10
4.33943e-10
1.19139e-09
-1.4681e-09
-2.50904e-09
2.78574e-09
-1.03511e-08
-2.15045e-09
-4.16836e-09
-7.06906e-09
4.53172e-09
6.70569e-09
-8.38251e-09
2.68811e-11
2.38691e-11
-1.38465e-08
8.13715e-10
1.02863e-09
-4.78062e-09
-6.55888e-10
4.40788e-09
1.01106e-08
-2.52109e-09
-9.38465e-09
1.79512e-09
-5.53914e-09
7.04795e-09
1.93108e-08
-2.08196e-08
-3.09932e-10
4.03022e-10
2.72634e-10
7.12505e-10
1.42831e-08
-1.44456e-08
-6.13129e-10
8.24982e-10
-7.48562e-09
-2.92585e-11
7.573e-11
-3.05997e-11
7.90394e-11
-7.8831e-09
-2.33243e-10
-5.95682e-11
-1.4374e-08
1.53511e-08
-1.98209e-09
1.00499e-09
2.44979e-12
-4.70084e-09
3.85381e-09
8.44578e-10
-1.38799e-08
-3.09106e-10
1.39464e-08
2.42609e-10
-7.58187e-09
-5.32293e-09
5.42543e-09
7.47937e-09
-1.86404e-09
1.10645e-09
-1.52648e-10
-1.73057e-09
-2.11831e-10
7.83599e-11
4.13268e-10
-1.46435e-08
-2.08941e-12
2.05809e-09
-7.07482e-09
-4.57291e-10
5.47402e-09
3.68258e-11
1.50918e-08
3.4922e-11
1.43941e-08
4.43544e-11
4.94542e-12
-1.10096e-08
-4.56745e-09
2.97e-09
-4.208e-09
6.96306e-09
-6.92342e-09
-6.13503e-11
1.19265e-10
-6.34976e-11
1.24145e-10
1.0753e-10
1.28735e-09
-8.27642e-09
-1.37398e-09
8.43101e-09
-4.19917e-09
7.01005e-09
-7.01888e-09
9.8535e-12
1.42697e-08
-1.63249e-09
7.25343e-11
1.43435e-08
-3.69491e-09
5.08839e-09
1.16143e-08
-1.30078e-08
9.26466e-09
7.51517e-10
-7.95809e-09
-3.74548e-12
1.42383e-08
-3.27094e-11
1.49318e-08
-3.16901e-11
1.42379e-08
-1.12412e-08
-3.24167e-09
1.0788e-08
2.75576e-09
8.61617e-10
-2.42598e-09
-1.54307e-11
1.42005e-08
-1.61614e-11
1.48936e-08
-6.49894e-12
1.4219e-08
-6.56034e-12
1.41827e-08
-6.81222e-12
1.48751e-08
5.19544e-09
-4.76296e-09
7.46612e-10
-2.02314e-11
1.41208e-08
-2.08422e-11
1.48104e-08
-4.13124e-12
1.41021e-08
-3.22742e-12
1.47917e-08
2.03374e-12
1.4097e-08
8.5753e-12
1.47917e-08
-6.38278e-12
1.41948e-08
-4.0556e-09
6.52784e-09
-6.67141e-09
3.91437e-11
-1.42198e-10
-5.42384e-10
-3.09105e-10
4.99678e-10
3.51812e-10
-1.64387e-09
1.06568e-08
-1.03942e-08
-3.99226e-12
1.41749e-08
3.45684e-10
-1.29904e-10
7.07674e-11
3.83985e-09
1.21078e-09
-4.022e-09
-1.40322e-08
5.0757e-10
-1.39925e-08
1.19825e-10
1.40233e-08
-1.56034e-08
-3.80305e-10
-1.48786e-08
-3.57978e-10
2.96725e-10
-8.73409e-09
8.87445e-09
-4.37089e-10
1.36596e-09
7.98694e-09
-9.6462e-09
1.21074e-08
8.48551e-09
-1.09468e-08
2.17489e-10
-3.21735e-10
-1.36979e-10
2.41224e-10
1.08637e-12
1.40569e-08
-8.46399e-12
1.40474e-08
-2.16394e-12
1.40281e-08
4.7572e-11
-1.67359e-09
2.86912e-10
1.33911e-09
3.85127e-11
1.40634e-08
4.5128e-11
1.40331e-08
1.26027e-08
-1.24746e-08
-7.66613e-09
7.53802e-09
8.68202e-09
6.13949e-09
-4.51324e-09
1.00926e-08
-1.04254e-08
9.8537e-10
-3.37458e-10
2.01465e-10
-7.66651e-09
-2.55279e-09
2.18027e-09
8.03904e-09
7.74199e-09
-9.85585e-09
9.63191e-09
-7.51805e-09
-7.71524e-09
-2.63914e-11
1.01261e-09
9.98315e-11
-1.08605e-09
-2.57743e-09
1.68262e-09
2.74314e-09
-1.84833e-09
-6.87193e-09
1.61383e-09
-6.90346e-11
5.32713e-09
3.26484e-09
-3.02547e-09
-3.29514e-09
3.05576e-09
-2.4057e-08
2.07458e-08
3.3112e-09
6.10509e-09
3.85926e-09
-3.01345e-09
-6.95091e-09
-4.60224e-10
-1.42045e-08
1.43521e-08
2.31555e-10
3.12104e-09
1.77528e-09
-1.63732e-09
-3.259e-09
8.34102e-09
9.65772e-09
-1.04542e-08
-9.38586e-09
7.41608e-09
1.24239e-08
2.11232e-09
-1.30112e-08
2.65969e-10
1.34419e-10
-1.68833e-10
8.20156e-09
-9.46695e-09
1.57742e-08
-7.13287e-09
6.69816e-09
5.7982e-09
-5.36349e-09
2.02113e-10
-7.78394e-09
-3.33197e-10
7.91503e-09
-9.46042e-09
1.5206e-09
-1.62719e-09
9.56701e-09
-4.12358e-10
7.54107e-09
-7.7965e-09
6.67795e-10
-1.38914e-10
5.6622e-09
-7.15221e-09
-6.09186e-09
-1.43551e-08
1.43062e-08
5.03444e-09
-4.34465e-09
-4.74539e-09
3.29975e-10
-6.76926e-10
5.54772e-10
-2.07822e-10
-1.93779e-08
2.09454e-10
3.2976e-09
-2.57855e-10
-4.19974e-09
1.16e-09
1.9625e-09
-2.01343e-09
8.72484e-10
-8.21552e-10
-1.00471e-08
1.39914e-08
-9.08243e-09
5.13805e-09
1.52924e-10
4.21509e-10
7.01309e-09
-7.58752e-09
-1.39749e-09
5.16278e-09
1.74411e-09
-5.5094e-09
4.00181e-09
2.71108e-09
-3.15015e-09
-3.56275e-09
8.04672e-10
3.88739e-09
-8.52213e-10
-3.19081e-09
-8.36531e-09
2.09571e-09
3.0196e-10
-1.41185e-08
-1.56146e-10
2.19003e-10
-6.28563e-11
1.36043e-10
-1.1504e-10
-3.35487e-09
-3.53532e-10
4.52024e-10
3.25638e-09
2.73316e-09
-1.34105e-08
9.28942e-10
-1.51029e-08
3.85598e-11
-1.43382e-08
-3.21962e-11
-3.76395e-10
-1.10943e-08
1.10851e-08
3.85573e-10
-8.02067e-10
4.65805e-10
6.66238e-10
7.91819e-09
-5.42764e-10
5.99886e-10
-7.97532e-09
1.29398e-09
-1.15352e-09
1.82203e-09
5.41208e-10
3.83817e-09
-6.96616e-09
2.58678e-09
-2.93295e-10
3.3871e-10
-4.54145e-11
-1.11848e-10
1.64674e-10
3.50195e-10
-2.40179e-09
-1.77227e-09
-2.04651e-09
8.06489e-11
-1.48066e-09
-5.09859e-10
5.11156e-09
-4.38699e-09
8.32127e-09
-1.10671e-08
-3.92389e-10
6.20891e-10
-4.00276e-10
1.71774e-10
-8.50453e-09
8.03469e-09
8.74887e-10
-4.05044e-10
-4.50381e-10
-1.24569e-09
-9.16497e-09
-1.27658e-09
1.19621e-08
1.42468e-08
-1.42247e-08
-3.77262e-10
-7.41022e-10
2.31297e-10
-1.67201e-10
3.67067e-10
-2.4982e-10
-7.59738e-09
6.75486e-10
1.29635e-10
3.64129e-11
-9.07069e-10
-1.26525e-08
7.81426e-09
4.82202e-09
-4.13674e-09
9.46537e-09
-1.01506e-08
-2.6794e-08
2.0816e-08
-1.02327e-09
2.28982e-09
5.84938e-09
-7.11593e-09
-9.59271e-11
-6.02193e-11
-8.45138e-09
1.06294e-08
-2.17799e-09
-6.49402e-10
7.58794e-10
9.75148e-10
-1.08454e-09
-7.78912e-09
7.80789e-09
-1.06044e-10
8.72774e-11
2.06967e-09
2.88647e-09
-1.94894e-09
-3.0072e-09
-7.50349e-10
1.09827e-08
-7.72167e-10
-9.4602e-09
-1.07322e-09
9.54836e-10
-5.31016e-10
1.28177e-09
-2.19873e-09
5.02344e-09
-4.71535e-09
8.06173e-09
-8.36982e-09
-2.90824e-09
1.16782e-08
-8.76993e-09
-4.27847e-10
1.53955e-09
3.66227e-10
-1.47793e-09
-7.73204e-09
-1.06929e-09
1.13481e-09
1.87394e-09
-2.09492e-09
9.15283e-12
-1.48712e-08
6.54075e-11
-1.55967e-08
6.62654e-11
3.94303e-09
4.07753e-09
-3.96212e-09
1.32229e-09
-1.21614e-08
1.29514e-08
-7.72325e-09
4.12724e-10
8.64528e-09
-6.95157e-09
-8.11064e-09
6.41693e-09
-1.77906e-11
7.72997e-10
-5.30383e-10
-2.24823e-10
3.49366e-09
-1.23832e-09
5.00414e-10
3.76477e-09
-3.85782e-09
6.44753e-09
-6.35448e-09
6.33507e-09
-7.26657e-09
-8.65234e-09
3.22968e-11
-1.43623e-08
1.43925e-08
9.08779e-10
-1.00026e-09
8.50278e-10
-3.4549e-10
-7.79518e-09
7.90742e-09
2.76007e-09
-2.22386e-09
5.83294e-10
2.50219e-09
7.13517e-10
3.4151e-09
-2.05895e-09
-4.49012e-10
-1.65243e-09
2.77676e-09
-2.94317e-09
2.35034e-09
-2.18393e-09
1.61388e-09
1.07414e-10
-3.07138e-09
4.24505e-09
-3.1016e-09
1.92793e-09
5.08605e-10
2.68013e-10
-2.21846e-10
4.58388e-10
7.02311e-09
-7.97335e-09
3.83836e-10
2.90608e-09
1.94885e-09
-1.36126e-09
-3.25382e-10
2.48541e-10
3.17179e-09
-3.09494e-09
-9.74731e-10
7.66814e-10
-2.01595e-09
-7.78997e-09
-5.28873e-10
4.38531e-09
5.99752e-10
-7.49275e-10
-4.23578e-09
4.15524e-10
-3.0613e-09
2.40252e-09
2.43261e-10
4.73295e-10
-4.02445e-10
6.91307e-10
-7.62158e-10
-4.44469e-09
4.47604e-09
7.64959e-10
5.39472e-09
-2.32151e-09
6.35405e-11
6.37193e-09
-1.24003e-09
3.48879e-10
-7.78797e-09
-3.50882e-10
1.89453e-09
2.06121e-09
-3.08325e-09
-8.21559e-09
-1.11606e-09
-2.12978e-09
-1.2048e-08
7.54793e-09
1.35475e-09
4.71716e-10
1.07239e-08
-1.2455e-08
1.35473e-09
-1.13979e-09
3.23659e-09
-2.42219e-09
-6.76855e-09
7.00695e-09
5.4238e-09
-2.62757e-09
7.13751e-10
-6.31223e-09
-4.44901e-09
1.00475e-08
-8.62358e-10
2.91588e-10
1.09249e-10
2.00407e-10
-1.49531e-08
-5.01462e-10
9.00834e-09
8.49614e-10
-1.28029e-09
1.04289e-08
1.57526e-09
-7.54341e-09
7.24393e-09
8.21823e-10
-3.37202e-09
-8.3982e-09
-1.20311e-10
5.7146e-10
7.94705e-09
7.31919e-10
4.93876e-10
-7.53061e-10
3.86401e-11
-2.25126e-09
-8.48689e-10
1.84218e-09
-1.73882e-09
2.63978e-09
-8.85035e-10
1.52311e-10
8.84672e-10
-7.02863e-10
-5.81838e-10
-7.52592e-09
-1.53388e-09
1.07274e-09
-3.56063e-10
3.99713e-10
1.74525e-09
-1.0004e-08
7.18725e-10
8.0485e-09
1.23676e-09
8.82554e-09
-4.11456e-09
-9.09797e-09
2.5125e-10
-6.57922e-11
2.02819e-09
-7.09985e-10
-1.32774e-10
4.5037e-10
3.00569e-09
3.30546e-10
-8.74034e-09
-3.50754e-09
1.14975e-08
5.48651e-09
3.63558e-09
1.97606e-10
6.08347e-10
-8.23744e-10
-9.38975e-09
8.2943e-09
9.74072e-09
-6.26547e-09
-2.24382e-09
2.15122e-09
6.35807e-09
9.26201e-09
-4.06876e-10
-7.49293e-10
1.13978e-11
-1.4714e-10
-7.68618e-09
9.9166e-11
3.79614e-09
3.31308e-10
-4.44984e-09
-5.04213e-09
4.64681e-09
4.84516e-09
8.40774e-09
1.82994e-10
-6.3143e-11
-1.19851e-10
-1.22856e-10
2.83642e-10
-6.41293e-10
-1.17482e-09
7.42891e-10
-6.8258e-09
-2.59214e-09
7.56568e-09
1.85226e-09
-2.56114e-09
4.53645e-09
8.94377e-10
-2.86969e-09
2.51523e-10
-2.77972e-10
2.77192e-10
-2.50743e-10
-1.24487e-08
1.04919e-08
-2.5652e-10
2.21329e-09
-1.41936e-08
1.41864e-08
9.13543e-10
-5.31656e-10
4.78337e-10
-8.60223e-10
3.19503e-09
-8.60288e-09
-7.04085e-09
1.2886e-09
4.64921e-09
-5.03589e-09
-9.01917e-10
7.77953e-10
-6.72523e-10
-6.51552e-10
5.46122e-10
-6.7013e-09
-4.57434e-09
3.16758e-10
-9.77551e-11
-3.9011e-10
2.68272e-10
5.95133e-10
-2.31596e-10
5.42766e-10
8.95084e-09
-6.62175e-10
8.84532e-09
7.67012e-09
1.15529e-09
-8.07628e-09
-7.49135e-10
-1.61902e-09
3.62008e-09
2.07647e-09
-6.03542e-09
5.44326e-09
-6.64432e-11
2.49437e-10
-2.91653e-09
7.16665e-10
3.02168e-09
4.70459e-10
4.43178e-11
-5.14777e-10
6.97382e-09
-6.97746e-09
3.9928e-09
-4.5894e-10
7.82356e-09
-4.56452e-10
-7.90987e-09
1.78437e-10
-1.02542e-10
-2.73951e-10
1.98056e-10
1.85566e-09
1.5133e-09
-1.34659e-09
-1.66707e-10
-6.10508e-09
6.70612e-09
-6.01042e-10
-7.52535e-10
1.56281e-10
3.427e-09
-2.83074e-09
-4.81589e-11
-1.24198e-09
5.73223e-09
1.83295e-09
2.92644e-10
1.62972e-09
-1.10549e-08
9.1988e-10
1.14573e-08
-1.41507e-08
-1.61395e-10
1.93559e-10
-1.03637e-09
5.22831e-09
-5.58943e-09
-3.13894e-10
-2.03094e-10
-7.16919e-09
-1.25006e-09
-8.24286e-09
8.95661e-09
-1.52127e-09
1.42126e-09
2.92966e-10
-1.92949e-10
-8.17688e-09
-3.02837e-09
4.25368e-09
-3.87997e-10
2.22488e-10
9.5222e-09
-5.65268e-09
-4.52402e-10
4.13038e-09
4.49459e-09
-4.8602e-09
-3.51761e-09
1.64189e-10
3.35343e-09
1.09101e-09
-7.50455e-09
1.61857e-09
1.56994e-09
-4.70901e-09
5.18982e-09
-7.44703e-09
-1.00434e-09
9.8948e-09
-5.7722e-09
-1.12132e-08
7.09063e-09