/*--------------------------------*- C++ -*----------------------------------*\
  =========                 |
  \\      /  F ield         | OpenFOAM: The Open Source CFD Toolbox
   \\    /   O peration     | Website:  https://openfoam.org
    \\  /    A nd           | Version:  8
     \\/     M anipulation  |
\*---------------------------------------------------------------------------*/
FoamFile
{
    version     2.0;
    format      ascii;
    class       volVectorField;
    location    "0.2";
    object      U;
}
// * * * * * * * * * * * * * * * * * * * * * * * * * * * * * * * * * * * * * //

dimensions      [0 1 -1 0 0 0 0];

internalField   nonuniform List<vector> 
1642
(
(5.27435e-06 -5.95544e-06 7.53721e-27)
(0.00183974 0.00431947 1.65392e-20)
(0.00323429 0.00313866 1.19593e-20)
(0.00290429 0.00423573 5.28827e-20)
(0.000894327 2.16862e-05 2.33364e-21)
(0.000775192 0.000133779 5.90704e-20)
(0.00113069 0.00019311 1.43554e-20)
(0.00108613 0.000249721 -1.16516e-22)
(0.000680018 0.000507244 1.41579e-20)
(0.000770937 0.000277674 3.72237e-20)
(0.00188811 0.00296286 -2.85798e-20)
(0.000334713 0.000907071 -3.08858e-20)
(0.000797062 0.000433179 3.71681e-20)
(0.000865023 0.000220161 -2.49744e-20)
(0.000457163 0.000381526 0)
(0.000646076 0.000411172 0)
(1.10295e-05 0.000261534 -1.97518e-20)
(-1.3655e-05 0.000207215 3.27437e-20)
(1.52919e-05 1.79616e-05 3.09933e-25)
(2.66108e-05 1.1551e-05 6.75865e-21)
(0.000881976 5.34672e-05 -9.6334e-21)
(0.00103648 0.000208792 1.08854e-20)
(0.000658102 0.000237177 0)
(0.00259423 0.000311967 -3.37711e-20)
(0.000352079 0.000229306 -5.46551e-20)
(-2.17765e-05 0.000495774 -7.05028e-21)
(0.000741074 -0.00015433 2.1453e-20)
(-5.30318e-05 0.000201021 0)
(0.0033478 0.00360346 -4.9597e-22)
(0.00349094 0.00377113 7.39682e-23)
(0.00367857 0.00397406 -3.62645e-22)
(0.00109335 9.4139e-05 -1.60324e-20)
(0.000419731 0.00133198 0)
(4.1935e-05 -4.87339e-05 -7.13595e-21)
(0.000338805 0.000212304 1.65268e-20)
(0.000338462 0.000406436 -3.13162e-21)
(0.00100483 0.000256122 -5.5017e-20)
(0.000895281 2.31831e-05 5.23694e-22)
(0.000425422 0.000363066 -1.37598e-23)
(0.000857537 0.00019359 -1.67329e-20)
(0.000623 0.000244122 0)
(2.02004e-05 4.57025e-05 -3.85009e-21)
(3.49384e-05 9.38152e-06 0)
(0.00227766 0.00504751 -3.84232e-20)
(-0.00074735 8.9542e-05 -3.2984e-21)
(0.000753059 4.28192e-05 -3.59665e-21)
(0.000870318 1.57856e-05 1.08394e-21)
(0.000493709 0.000141679 -7.49841e-21)
(0.000372326 0.000118964 -2.10623e-20)
(0.000689649 0.000326799 -3.27333e-20)
(3.58708e-05 8.83716e-05 -7.93294e-21)
(0.000735372 0.000459262 -1.03425e-20)
(1.61038e-05 -7.29111e-06 5.60736e-21)
(-9.46798e-05 0.00425802 0)
(0.00280108 0.0033469 -2.6316e-20)
(0.000553564 0.000485731 1.64922e-21)
(0.00113257 0.000200076 -7.1156e-21)
(0.000202748 6.78709e-06 -1.08752e-20)
(0.00114704 0.000462173 -4.41664e-20)
(0.000426407 -0.000353257 0)
(0.00024692 0.000153711 0)
(0.000889043 4.84398e-05 -2.05138e-21)
(9.35035e-05 -8.65492e-05 5.99711e-21)
(0.00159811 0.000127697 -3.08087e-20)
(7.01481e-05 0.000437845 2.53509e-20)
(5.547e-05 8.50235e-06 1.87178e-21)
(0.000119706 0.000122616 0)
(5.0616e-05 1.90242e-05 -7.61573e-21)
(0.000395497 0.000523151 8.59605e-21)
(3.20676e-06 6.53607e-05 -7.11589e-21)
(0.000336224 0.000100607 -2.02807e-20)
(9.65761e-05 0.000283397 -2.25265e-20)
(0.000254031 7.10355e-05 2.70333e-20)
(0.000887157 2.69783e-05 2.09719e-21)
(0.000530568 0.000681916 1.34471e-20)
(0.00128746 0.00140322 -3.57575e-21)
(0.00192803 0.00367678 -9.13368e-24)
(0.00180908 0.00349099 0)
(0.00172756 0.00332354 5.62612e-22)
(0.000409712 0.000161809 9.55703e-21)
(5.80193e-05 -8.617e-07 3.83562e-21)
(3.40679e-05 2.12958e-05 2.6476e-20)
(0.00110817 0.00030659 -2.85774e-20)
(0.000899922 0.000493425 1.77214e-20)
(-0.00172351 0.000596801 0)
(0.00024695 0.000535091 -6.46891e-21)
(0.000386023 0.000553409 -2.46306e-20)
(1.14547e-05 -9.61489e-05 0)
(0.00053295 0.000558722 6.33229e-21)
(3.45662e-05 -3.56353e-05 -2.88052e-21)
(0.00107834 0.000145373 -1.09321e-20)
(0.000128137 0.000308654 4.65512e-20)
(0.000780369 0.000545313 -2.97493e-20)
(0.000444887 0.000435974 -1.28588e-20)
(0.000516173 0.000417349 -5.04243e-20)
(9.24837e-05 -0.000152355 -1.66672e-21)
(0.000784827 0.000170895 -4.08741e-20)
(0.000555524 0.000344144 4.32288e-20)
(0.000348475 0.000296394 2.55684e-20)
(0.000448157 0.000522337 -1.70954e-20)
(0.000402059 0.000560028 3.19529e-20)
(0.000533973 0.000741847 0)
(3.55778e-05 -0.000255084 1.38743e-20)
(0.00366708 0.00387604 -2.31261e-22)
(0.00346618 0.00368238 3.28419e-20)
(0.00331928 0.00351668 1.02019e-20)
(0.00380221 0.00335552 3.44999e-20)
(0.00362394 0.00321683 8.25767e-22)
(0.00404618 0.00346621 6.95311e-21)
(0.00384674 0.00329022 2.69018e-22)
(0.00380102 0.00335443 1.07905e-20)
(0.00367135 0.00313802 -1.45528e-20)
(0.00399756 0.00354805 0)
(0.00405447 0.00344266 1.34126e-20)
(0.00384506 0.00326501 3.87405e-21)
(0.00385457 0.00328582 8.92987e-21)
(0.00407203 0.00346218 -2.07677e-21)
(0.00362385 0.00317344 0)
(0.00389492 0.00327266 0)
(0.00363149 0.00323121 1.63508e-20)
(0.00368205 0.00314649 -3.33145e-21)
(0.00384758 0.00323854 -4.20984e-20)
(0.00401022 0.00356097 0)
(0.000399768 0.000676546 6.25403e-21)
(0.000377305 0.000594593 0)
(0.000312947 -8.33316e-05 4.02442e-21)
(0.000976218 0.000231165 2.32966e-20)
(8.31867e-06 -6.81873e-05 0)
(0.00055476 0.000261864 7.95139e-21)
(0.000587284 0.000326402 -2.3439e-20)
(0.00038982 4.15056e-05 0)
(0.000234 -9.24154e-05 -3.92814e-21)
(2.31346e-05 -4.28358e-05 -1.68856e-21)
(0.000814805 0.00020828 1.46398e-20)
(5.71531e-05 -1.13228e-05 5.69584e-25)
(3.09528e-05 -5.97724e-05 1.76916e-21)
(0.00061291 0.000305848 -4.37056e-21)
(0.000334885 5.40537e-06 4.33779e-21)
(0.000567953 0.000277259 0)
(0.000517939 0.000186013 0)
(5.79463e-05 0.000379092 1.3605e-20)
(5.80444e-05 2.08508e-05 -2.54438e-21)
(9.76976e-05 7.96114e-05 0)
(0.000301119 4.64255e-05 1.83485e-20)
(0.000502842 0.000481105 6.43784e-20)
(6.23181e-05 0.000205352 2.38941e-20)
(0.000596731 0.000145621 0)
(5.06166e-05 0.000131624 3.29442e-20)
(0.000611971 0.000230113 -4.20718e-21)
(0.000659163 0.000184685 6.87635e-20)
(0.00029658 0.000190407 2.76364e-20)
(0.000859378 3.98637e-05 6.23843e-21)
(6.7002e-05 -1.49449e-05 -3.59725e-21)
(0.000314955 0.000228096 0)
(0.00107005 -0.000203364 1.97541e-20)
(0.000648539 0.000172438 0)
(0.000688756 0.00021228 -3.43544e-21)
(3.94817e-06 2.40655e-05 -2.2634e-20)
(6.53552e-06 -4.75573e-05 -1.07397e-22)
(-2.0327e-05 0.000293943 0)
(9.69543e-05 6.76732e-05 6.20904e-20)
(6.74322e-05 5.02802e-05 -6.59763e-21)
(0.000144554 -3.66842e-05 1.78795e-21)
(0.000732257 0.000435676 0)
(5.74747e-06 -3.15148e-05 0)
(0.000845743 6.98271e-05 0)
(0.000680993 0.000148633 0)
(5.24522e-05 -2.16537e-05 -3.97944e-21)
(0.000868821 -1.35555e-05 -9.10132e-21)
(2.60463e-05 -0.000193943 -3.3247e-21)
(-4.46679e-05 0.000298888 -3.34293e-20)
(-1.28336e-05 0.0001762 -2.8928e-20)
(3.42204e-06 4.97976e-05 7.01045e-21)
(-6.2944e-06 0.000149978 2.93852e-20)
(0.000650604 2.46287e-05 -1.06058e-20)
(2.06968e-05 -0.000134014 3.17429e-21)
(0.000731395 0.000255409 1.70058e-20)
(0.000367392 0.000167177 2.47371e-20)
(0.000592678 0.000243308 0)
(0.000562961 0.000610676 -6.52934e-21)
(0.000958121 0.000380121 1.47545e-20)
(4.16958e-05 2.00667e-05 2.36902e-20)
(0.000812689 0.000652252 6.38438e-21)
(1.30996e-06 3.36815e-05 1.13358e-20)
(-3.06998e-06 0.000125192 0)
(0.000532042 0.000312468 1.74997e-20)
(0.000600155 0.000141443 1.56211e-21)
(4.92534e-05 -9.01524e-06 -1.57307e-20)
(0.000224899 -0.000180559 2.1197e-21)
(0.000914235 0.000336193 -5.58152e-23)
(0.000522237 0.00054077 -1.39848e-23)
(0.000349358 0.000137885 -2.01454e-20)
(4.94198e-05 3.07199e-05 3.0142e-21)
(0.000290944 0.000299912 -1.34232e-20)
(0.000180454 -8.84419e-05 -3.77153e-21)
(0.000683811 -5.05065e-05 -8.68453e-23)
(0.000416852 0.000652417 -1.512e-21)
(5.08315e-05 -1.8246e-06 1.2493e-20)
(0.000315821 0.000467202 -3.15654e-20)
(0.000635633 0.000206406 5.3789e-20)
(6.41933e-05 1.09955e-05 -7.14867e-21)
(8.01522e-05 -1.00695e-06 -4.47942e-22)
(0.000521905 0.000633498 -6.59975e-21)
(0.000658297 0.000451903 1.96164e-20)
(0.00104941 9.39598e-05 0)
(4.00299e-05 7.7853e-06 1.9793e-20)
(0.000409901 0.000220205 -1.49458e-20)
(0.00402742 0.00349091 -3.56244e-20)
(0.00363281 0.00318892 -1.58379e-20)
(0.00379281 0.0033325 -1.31492e-20)
(0.00400448 0.00351365 -2.16125e-20)
(0.004019 0.00352344 0)
(0.00349354 0.00382742 8.15678e-21)
(0.00349901 0.00382195 7.84956e-22)
(0.00363893 0.00317344 -1.54493e-20)
(0.00402239 0.00349854 1.10582e-20)
(0.00381795 0.00329906 -1.57285e-20)
(0.00404143 0.00348391 -1.13218e-20)
(0.00380641 0.00331226 1.33928e-20)
(0.00347516 0.00385621 0)
(0.0040348 0.00348655 0)
(0.00353392 0.00375519 -7.46772e-21)
(0.00403634 0.00348368 -1.10567e-20)
(0.00364543 0.00317087 -9.90333e-21)
(0.00403575 0.00349086 -2.77663e-20)
(0.00363108 0.00318768 0)
(0.00321914 0.00339618 -8.11841e-21)
(0.0040263 0.00349842 -5.65224e-20)
(0.0035638 0.00372301 3.25824e-20)
(0.00335509 0.00356436 -1.24423e-20)
(0.00348974 0.00381586 -2.4878e-20)
(0.00330465 0.00365134 -1.63927e-20)
(0.0034964 0.00381902 2.08038e-20)
(0.00355622 0.00374255 -2.27478e-20)
(0.00349528 0.00381854 -1.015e-21)
(0.00346018 0.00386118 1.64147e-20)
(0.00327972 0.00366573 2.38349e-20)
(0.00349523 0.00382175 4.25058e-20)
(0.00404447 0.00348243 -1.25262e-20)
(0.00379805 0.00334033 -6.40018e-21)
(0.00405055 0.0034877 4.34991e-20)
(0.00384763 0.00330894 2.7317e-22)
(0.00403889 0.00349393 1.19422e-20)
(0.00405692 0.00350075 -3.03639e-20)
(0.00401508 0.00352265 5.7036e-21)
(0.00379869 0.00332076 2.18536e-21)
(0.003496 0.00381532 1.30047e-20)
(0.00348066 0.00381906 -3.06712e-20)
(0.00365837 0.00316776 0)
(0.00400571 0.00349919 -2.39078e-21)
(0.00353945 0.0037627 6.52659e-21)
(0.00404436 0.00349355 -2.18306e-20)
(0.00365187 0.00317862 0)
(0.00389826 0.00337001 1.32665e-20)
(0.00401531 0.00349466 3.52442e-21)
(0.00379909 0.0033376 3.29769e-21)
(0.00363383 0.00318452 -5.27378e-21)
(0.00389414 0.00331597 2.84952e-20)
(0.00365608 0.00316827 1.98101e-20)
(0.00380783 0.0033147 -3.23475e-21)
(0.00365664 0.00317565 0)
(0.00385496 0.00334069 0)
(0.00385042 0.00335719 -2.41563e-20)
(0.0033554 0.00356783 6.02931e-21)
(0.00332159 0.00349657 -2.63397e-20)
(0.00383458 0.00333554 1.13358e-20)
(0.00363349 0.00319922 0)
(0.0038237 0.00331618 -1.89441e-20)
(0.00343799 0.00381302 -1.06949e-21)
(0.00381666 0.00331603 1.04775e-20)
(0.003492 0.00382281 -1.35641e-20)
(0.0040061 0.00351885 -3.59417e-21)
(0.0032296 0.00339183 9.62751e-21)
(0.00365675 0.00317857 1.23821e-20)
(0.00402042 0.00350439 1.29509e-20)
(0.00368175 0.00318265 0)
(0.00329696 0.00362302 -4.53471e-20)
(0.00383145 0.00332642 2.12816e-20)
(0.00404666 0.00350628 1.08221e-20)
(0.00330294 0.0036273 2.09121e-22)
(0.00355951 0.00372833 -1.34194e-20)
(0.00334995 0.00357879 4.50813e-21)
(0.00347401 0.00382635 -1.16081e-20)
(0.00326243 0.00356102 -2.89306e-20)
(0.00402112 0.00349875 -4.91834e-21)
(0.00381047 0.00332148 0)
(0.00329391 0.00363424 7.93952e-21)
(0.00365374 0.00317105 0)
(0.00334517 0.00357582 -4.98451e-21)
(0.00317719 0.00345942 3.17375e-20)
(0.00401857 0.00349955 0)
(0.00366077 0.00316119 1.26641e-20)
(0.00365225 0.00316775 1.20141e-20)
(0.00401371 0.00351064 1.2921e-20)
(0.00353265 0.00377366 4.88097e-21)
(0.00329661 0.00362969 0)
(0.00349573 0.00378022 1.30464e-20)
(0.00312482 0.00345834 3.36634e-20)
(0.0029954 0.00343059 0)
(0.00382355 0.00331334 2.03531e-20)
(0.00363019 0.00319495 7.5438e-21)
(0.00353624 0.00376446 -3.66896e-21)
(0.00379195 0.00334521 -6.54735e-21)
(0.00322707 0.00338352 1.12848e-20)
(0.00335222 0.00357057 -9.20802e-21)
(0.00364939 0.00314953 -1.90269e-20)
(0.00318854 0.00334712 0)
(0.00321151 0.00340417 -2.60519e-20)
(0.00357478 0.00372442 3.65523e-21)
(0.0039984 0.00352712 -7.11219e-21)
(0.00338985 0.00353202 3.37608e-21)
(0.00337889 0.00353979 0)
(0.00349354 0.00381637 1.38928e-20)
(0.00339633 0.003808 0)
(0.00331719 0.00361474 -3.24208e-20)
(0.00352657 0.00377338 -5.39822e-21)
(0.00322885 0.00338097 2.46914e-24)
(0.00322644 0.00338681 -1.58385e-20)
(0.00363033 0.00318997 -1.4356e-20)
(0.00398622 0.00354023 -3.99085e-21)
(0.00325412 0.00346496 -1.5092e-20)
(0.00355677 0.00373344 -8.38321e-21)
(0.00326152 0.00353663 0)
(0.00326525 0.00335104 2.7863e-20)
(0.00383655 0.00328323 -2.85926e-20)
(0.00361632 0.00334064 1.47085e-20)
(0.00329844 0.00364218 0)
(0.00393542 0.00345785 1.22915e-20)
(0.00336286 0.0035311 1.49885e-21)
(0.00366832 0.00318453 0)
(0.00349188 0.00381944 -2.54634e-20)
(0.00318488 0.00344864 -5.21555e-20)
(0.00362329 0.00317772 -2.74199e-21)
(0.00379921 0.00333152 1.23534e-20)
(0.0040361 0.00349403 8.90595e-21)
(0.00400616 0.00352106 9.54907e-21)
(0.00322872 0.00339042 -3.70397e-21)
(0.00321479 0.00341048 6.64781e-21)
(0.00320239 0.00341728 0)
(0.00323518 0.00337158 6.17499e-21)
(0.00363054 0.00318309 0)
(0.00380348 0.00336287 7.67148e-22)
(0.00368403 0.00316214 0)
(0.00341934 0.00350111 2.48065e-20)
(0.00400606 0.00351265 1.33951e-20)
(0.00314789 0.00346837 0)
(0.00326868 0.0035156 1.52433e-20)
(0.00333157 0.00378077 -4.96127e-20)
(0.00355237 0.00374285 0)
(0.00356172 0.0037394 0)
(0.00329158 0.00362636 -1.08032e-20)
(0.00318579 0.00345063 -1.4134e-20)
(0.00362937 0.00318502 7.45974e-21)
(0.00368527 0.00325733 0)
(0.00379907 0.00334043 8.80485e-21)
(0.00396437 0.00355163 1.22926e-21)
(0.00337794 0.00354542 0)
(0.00377354 0.0033511 -5.06595e-21)
(0.00325842 0.00371569 5.03626e-23)
(0.00379882 0.00336229 1.06944e-20)
(0.00322927 0.00338472 -8.67382e-21)
(0.00337965 0.00354324 1.4156e-20)
(0.00400643 0.00351893 1.49132e-20)
(0.00380057 0.0033481 2.1121e-22)
(0.00379825 0.00333056 -7.34519e-21)
(0.00335015 0.00356065 6.0592e-21)
(0.00363576 0.00320537 9.45709e-21)
(0.00347152 0.00382218 2.36369e-20)
(0.0036319 0.00318609 -1.69033e-20)
(0.00378848 0.00359164 0)
(0.00303689 0.00321342 -2.58349e-21)
(0.00314837 0.00346814 -1.10025e-20)
(0.00381796 0.00332245 -9.43357e-21)
(0.00379529 0.00333288 1.59604e-20)
(0.00335187 0.00357684 0)
(0.00399964 0.00354809 -3.20219e-20)
(0.00367404 0.00315756 -2.1677e-20)
(0.00347429 0.00382603 2.74715e-20)
(0.00317033 0.00346303 -1.38394e-20)
(0.00383999 0.00330457 2.34378e-20)
(0.00314538 0.00346732 0)
(0.00317318 0.0034547 2.36429e-20)
(0.00319693 0.00342398 2.03332e-20)
(0.00337767 0.00353309 0)
(0.00379743 0.00335121 1.1107e-20)
(0.00400597 0.00351055 -2.05417e-20)
(0.0040203 0.00348352 -8.08998e-21)
(0.00402457 0.00347814 2.44869e-21)
(0.00402373 0.00350328 1.81282e-20)
(0.00401055 0.00354775 -2.3512e-20)
(0.00349804 0.00380923 0)
(0.0031661 0.00346801 -3.15745e-20)
(0.0032281 0.00337445 8.78752e-21)
(0.00381454 0.00330384 -2.23573e-21)
(0.00327721 0.00345061 -3.77229e-20)
(0.0033107 0.00353801 4.38331e-21)
(0.00315233 0.00345061 -1.64357e-20)
(0.00355553 0.00373387 -1.32602e-20)
(0.00382503 0.0033113 8.39406e-21)
(0.00400431 0.00352078 5.13126e-21)
(0.00317198 0.00346551 -1.45929e-20)
(0.00365143 0.00316111 0)
(0.00366036 0.00315893 7.03267e-20)
(0.00364123 0.00316615 5.58018e-21)
(0.00353021 0.00372261 -5.09052e-21)
(0.00321842 0.00340395 -4.75572e-21)
(0.00320408 0.00341084 5.65012e-21)
(0.00349229 0.0038234 4.99546e-20)
(0.00364787 0.00318 2.58501e-20)
(0.00355902 0.00373993 1.07476e-20)
(0.00331233 0.00362331 9.09608e-21)
(0.00348848 0.00381949 -4.82876e-20)
(0.0031601 0.00346307 1.27915e-20)
(0.00363059 0.00319432 4.89285e-21)
(0.00316097 0.00346617 4.37866e-20)
(0.00366528 0.00316095 -2.8983e-20)
(0.00327952 0.00343312 -1.14679e-20)
(0.00352498 0.00376826 0)
(0.00318888 0.00345333 4.47925e-20)
(0.0038278 0.0033202 -9.34457e-21)
(0.00334204 0.0035707 0)
(0.00315346 0.00348096 -1.01236e-20)
(0.00337133 0.00354749 -7.4883e-22)
(0.00362723 0.00317619 0)
(0.00362707 0.00319388 -4.2534e-21)
(0.00350547 0.0037094 1.11995e-20)
(0.00403062 0.00349006 1.06606e-20)
(0.00363624 0.00317442 -9.30328e-21)
(0.00384295 0.00329243 9.30256e-21)
(0.00321552 0.00339352 -1.4588e-20)
(0.00366059 0.00316133 -2.37461e-20)
(0.00382377 0.00333153 -4.50758e-20)
(0.00382908 0.00332709 2.18013e-20)
(0.00338002 0.00352903 5.55695e-21)
(0.00355762 0.00373353 0)
(0.0036631 0.00318421 -4.48849e-20)
(0.0033331 0.00353442 0)
(0.00316014 0.0034715 1.11498e-20)
(0.00402721 0.00349329 1.35749e-20)
(0.00321974 0.00339596 8.01234e-21)
(0.00330896 0.00362824 1.02426e-20)
(0.00346 0.00382361 1.54365e-20)
(0.00349139 0.00382553 1.03687e-21)
(0.00320846 0.00339503 -1.37545e-20)
(0.00322609 0.00338936 -1.0254e-20)
(0.00337423 0.00353367 -1.0763e-20)
(0.00404182 0.00346454 -4.05092e-21)
(0.0033734 0.0035443 5.61988e-21)
(0.00319096 0.00361153 -1.14763e-20)
(0.00383354 0.00328532 -3.72472e-21)
(0.00403152 0.00349432 -1.95248e-20)
(0.00367472 0.00319234 0)
(0.00384704 0.00330971 2.14052e-20)
(0.00316234 0.00345388 2.22666e-20)
(0.00348894 0.00382134 5.61996e-20)
(0.00347859 0.00382893 -5.42766e-20)
(0.00357654 0.00322793 -6.58659e-21)
(0.00337888 0.00354032 -1.53941e-20)
(0.00384204 0.00334882 1.17271e-20)
(0.00361699 0.00320511 0)
(0.00328787 0.00363774 2.77313e-20)
(0.00346257 0.00370405 -1.92028e-21)
(0.00366639 0.00316621 0)
(0.00316365 0.0034682 -2.32767e-24)
(0.00405115 0.00349422 -4.03781e-20)
(0.00385857 0.0033219 -1.40124e-20)
(0.00379027 0.00329566 1.43149e-20)
(0.00403367 0.00349549 0)
(0.00366446 0.0031642 1.30764e-20)
(0.00332699 0.00360894 9.70629e-21)
(0.00371277 0.00331315 0)
(0.00316371 0.00360107 0)
(0.00305776 0.00346271 -5.09997e-20)
(0.00315909 0.00346391 0)
(0.00367591 0.00319129 0)
(0.00316369 0.00346335 0)
(0.0031634 0.00346207 0)
(0.00321084 0.00341117 -3.51618e-21)
(0.00318739 0.00336495 4.58895e-21)
(0.00355169 0.00374381 3.01913e-20)
(0.00348961 0.00382368 3.89953e-20)
(0.00405284 0.00350027 -1.08002e-20)
(0.00321701 0.00340301 4.17646e-21)
(0.00393337 0.00357577 -9.09058e-22)
(0.00337086 0.003556 1.30484e-20)
(0.00400725 0.00354186 7.23438e-21)
(0.00310003 0.00350748 -2.31192e-20)
(0.00378447 0.003337 6.7446e-21)
(0.00366215 0.00314419 0)
(0.00404069 0.00350952 -1.52145e-20)
(0.00311464 0.00350254 0)
(0.00330458 0.00362535 1.13334e-20)
(0.00330338 0.00362092 -1.19202e-20)
(0.00354845 0.0037444 0)
(0.00321304 0.00360455 -2.0366e-22)
(0.00315205 0.00347361 1.0262e-20)
(0.0032933 0.00361812 1.22814e-20)
(0.00337569 0.00353421 -1.49453e-20)
(0.00348917 0.00382692 2.23873e-20)
(0.00314338 0.00337987 6.50133e-20)
(0.00373733 0.00339147 -6.18414e-22)
(0.00403116 0.00350192 -1.1915e-20)
(0.00325905 0.0036095 -3.72347e-20)
(0.00335785 0.00352162 1.56427e-21)
(0.00308644 0.00364355 -1.70903e-20)
(0.00326909 0.00335164 2.8998e-20)
(0.00403291 0.00349239 1.42512e-20)
(0.00334871 0.00357165 1.57091e-20)
(0.00353007 0.00376922 1.69918e-20)
(0.00360116 0.00370066 9.40379e-21)
(0.00349368 0.00382253 -1.6233e-20)
(0.00330271 0.00362678 0)
(0.00332951 0.00361355 2.09766e-20)
(0.00336651 0.00355579 7.87811e-21)
(0.0032758 0.00335008 4.42811e-20)
(0.00354899 0.00374562 0)
(0.00322777 0.00337503 -2.64654e-20)
(0.00382954 0.00328777 0)
(0.00342494 0.00386759 -9.08868e-21)
(0.00329161 0.00357797 1.41676e-20)
(0.00379591 0.00335255 0)
(0.00337071 0.00354474 7.8192e-22)
(0.0035537 0.00373984 8.3088e-22)
(0.0031412 0.00346704 0)
(0.00326112 0.00359143 -1.40204e-20)
(0.00370233 0.00318232 -3.30049e-20)
(0.00320884 0.0034799 6.43699e-22)
(0.00312078 0.00349451 0)
(0.00365835 0.0031693 1.18911e-20)
(0.00399032 0.0035185 -7.31272e-21)
(0.0030597 0.00334211 2.98638e-21)
(0.00349048 0.00382373 -1.30809e-20)
(0.00316204 0.00346717 0)
(0.0031613 0.00346335 -2.33229e-20)
(0.00294905 0.00335756 3.23822e-20)
(0.00380322 0.00332944 -6.33379e-21)
(0.00316567 0.00345902 -2.35896e-20)
(0.00344385 0.00385267 0)
(0.00377508 0.0033668 -2.26507e-21)
(0.00349188 0.00382073 -4.19786e-20)
(0.00380849 0.00334116 -5.31838e-21)
(0.00325351 0.0036633 -1.43496e-20)
(0.003648 0.00317681 0)
(0.00320787 0.0034077 -1.19103e-20)
(0.00338829 0.00366715 9.94292e-22)
(0.00359522 0.00369968 8.68747e-21)
(0.00355496 0.00374084 7.14072e-21)
(0.00338802 0.00329841 0)
(0.00320225 0.00342179 7.41132e-21)
(0.00332122 0.00360589 -2.40767e-20)
(0.00404206 0.00349727 5.21001e-20)
(0.00354963 0.00374992 8.52958e-21)
(0.00357301 0.00322728 1.94864e-21)
(0.00363162 0.00320646 -1.28282e-20)
(0.00391873 0.00359429 1.53335e-20)
(0.00351009 0.00380629 -1.43923e-20)
(0.00342306 0.00350333 -8.80065e-21)
(0.00403226 0.00347521 1.62383e-20)
(0.00359451 0.00370731 9.71781e-21)
(0.00379511 0.00332986 1.42022e-21)
(0.00343171 0.00386378 7.93992e-22)
(0.00344843 0.00349415 -3.65964e-20)
(0.00325784 0.00366499 0)
(0.00403998 0.00349006 0)
(0.00363356 0.00322045 2.56103e-20)
(0.00352995 0.00378077 4.51208e-21)
(0.00364601 0.00315178 2.81665e-21)
(0.00332451 0.00357373 1.20978e-20)
(0.00343567 0.00386212 0)
(0.00328794 0.00366765 -1.61069e-20)
(0.00365419 0.00316934 0)
(0.00359705 0.00369933 -1.75517e-20)
(0.00364493 0.0031743 -2.96664e-20)
(0.0034237 0.00349532 9.31301e-21)
(0.00311899 0.00350835 -9.42157e-21)
(0.00324768 0.00366754 -8.37893e-21)
(0.00384067 0.00329697 2.86727e-20)
(0.00365337 0.00317348 -2.57018e-20)
(0.00400462 0.00352155 0)
(0.00369915 0.00358456 2.02957e-20)
(0.0035798 0.00370477 -1.26883e-24)
(0.00326339 0.00366707 -8.23587e-21)
(0.00324315 0.00336149 9.38799e-21)
(0.00400668 0.00352088 0)
(0.00381016 0.00332634 0)
(0.00384427 0.00329812 -8.44493e-21)
(0.00359843 0.00370323 1.93818e-20)
(0.00314863 0.00350226 -1.85364e-20)
(0.00347754 0.00384703 0)
(0.00382289 0.00330988 4.2468e-20)
(0.0031392 0.00350443 2.74256e-20)
(0.00344181 0.00386044 0)
(0.00404833 0.00350719 0)
(0.00311557 0.00349847 -1.59297e-20)
(0.0040187 0.00348308 -6.96892e-21)
(0.00339289 0.00351636 7.3708e-21)
(0.00360533 0.00368453 0)
(0.00320257 0.00338264 -5.23311e-21)
(0.00326337 0.0036632 1.18205e-20)
(0.00334771 0.00358528 4.16749e-21)
(0.00381212 0.00330349 5.85642e-21)
(0.00364695 0.00316725 2.11101e-20)
(0.00325983 0.00365714 -1.38201e-20)
(0.00342327 0.00386645 -2.32302e-22)
(0.00401632 0.00351966 6.67581e-21)
(0.0034295 0.00350034 0)
(0.00310994 0.00350073 0)
(0.0040298 0.00349747 0)
(0.00371726 0.00359229 0)
(0.00398585 0.003554 0)
(0.00320924 0.00341123 -6.13952e-21)
(0.00340991 0.0035103 1.98247e-20)
(0.00361237 0.00369139 -1.43936e-20)
(0.00362691 0.00319167 8.44335e-21)
(0.0032859 0.00333504 4.26583e-20)
(0.00311083 0.00350292 -6.65923e-21)
(0.00342633 0.00389604 0)
(0.00382274 0.00329896 -5.79007e-21)
(0.00341738 0.00350364 0)
(0.00311189 0.00350897 9.53799e-22)
(0.0033523 0.00358283 -1.3237e-20)
(0.0031074 0.00350755 1.77551e-20)
(0.00344078 0.00386293 8.60815e-21)
(0.00360968 0.00369426 -2.93473e-20)
(0.0034276 0.00386725 8.08636e-22)
(0.0032683 0.00335682 -2.83013e-20)
(0.0036184 0.00369097 1.48934e-20)
(0.00311518 0.00350104 0)
(0.00326424 0.0033462 0)
(0.00323779 0.00370112 0)
(0.00386124 0.00344368 4.71793e-20)
(0.00359697 0.00370446 8.17991e-22)
(0.00325064 0.00366962 9.72623e-21)
(0.00360592 0.00369588 -4.06187e-20)
(0.00325142 0.00366368 7.47152e-22)
(0.00326013 0.00335022 -4.92834e-20)
(0.0034216 0.0035039 0)
(0.00380653 0.003335 1.24419e-20)
(0.00311404 0.00350157 0)
(0.00326528 0.00335468 -2.53394e-20)
(0.00342737 0.00385931 0)
(0.00324578 0.00366018 1.69589e-20)
(0.00342975 0.00386662 6.35035e-21)
(0.0032435 0.0036618 1.09517e-20)
(0.00342244 0.00403422 2.46476e-21)
(0.00324314 0.00382955 -2.09054e-21)
(0.00359739 0.00370812 -1.29492e-20)
(0.00342315 0.0034947 -1.13856e-20)
(0.00343565 0.0042264 4.35551e-21)
(0.00359848 0.00369746 -2.45445e-20)
(0.00342864 0.00387004 1.05279e-20)
(0.0034092 0.00351123 9.68165e-21)
(0.00325834 0.00366233 0)
(0.00324243 0.00366501 9.8318e-21)
(0.00342923 0.00387041 -5.60766e-21)
(0.00325047 0.00366988 -5.18307e-21)
(0.00341719 0.00350241 -1.17871e-20)
(0.00326563 0.00335464 -2.72087e-20)
(0.00360229 0.00370035 -3.87173e-20)
(0.00342495 0.00350116 -1.20888e-20)
(0.00353747 0.00279784 8.42516e-21)
(0.00361339 0.00369478 -1.13956e-20)
(0.00327509 0.00334584 2.17536e-20)
(0.0034242 0.00350647 -2.05509e-20)
(0.00326011 0.00366592 0)
(0.00318441 0.00368928 -3.91439e-20)
(0.00360083 0.00320072 0)
(0.00342935 0.00385373 -1.31467e-20)
(0.0036107 0.00369931 -4.5549e-20)
(0.00342329 0.00385695 -7.49578e-21)
(0.00326823 0.00335454 2.55968e-20)
(0.00357554 0.00317999 5.45039e-20)
(0.00309824 0.00349967 2.09266e-20)
(0.00343741 0.00386583 0)
(0.00343417 0.00385918 -1.22842e-20)
(0.00274326 0.00335696 1.17794e-20)
(0.00361809 0.00369591 4.38834e-20)
(0.00326637 0.00335083 -2.44568e-20)
(0.00327941 0.00334778 0)
(0.00325698 0.0040117 6.14863e-21)
(0.00361376 0.0036953 4.34606e-20)
(0.00360044 0.00370487 0)
(0.003608 0.00370087 8.2097e-22)
(0.00328135 0.00334413 -6.62006e-22)
(0.00315443 0.00332952 -5.56217e-22)
(0.00359557 0.00370757 -1.25622e-20)
(0.00360087 0.00370402 8.37218e-22)
(0.00316017 0.00348725 2.89589e-20)
(0.00328504 0.00334607 -3.05692e-20)
(0.00326785 0.00335642 -1.52485e-20)
(0.00319654 0.00341835 -1.72164e-20)
(0.00307102 0.00376163 -1.02851e-22)
(0.00326652 0.00335505 -2.82202e-20)
(0.00311869 0.00350213 -9.46875e-21)
(0.00352238 0.00347395 -1.21073e-20)
(0.00367264 0.00314389 -5.07781e-21)
(0.00367127 0.00323973 -4.14729e-20)
(0.00343029 0.00394219 -3.36795e-21)
(0.0032457 0.00374289 -8.60771e-22)
(0.00326718 0.00335498 0)
(0.0032666 0.00335779 0)
(0.0031125 0.00350516 -4.32765e-21)
(0.00310837 0.00349563 -2.48523e-22)
(0.00311627 0.00349962 -5.11735e-21)
(0.00310937 0.00349963 -1.118e-20)
(0.00311162 0.00350136 1.12992e-20)
(0.00358889 0.00322344 6.13931e-21)
(0.00326932 0.00335742 -2.9319e-20)
(2.96673e-05 2.35265e-05 -1.62534e-20)
(4.50959e-05 -1.57091e-05 8.02691e-21)
(9.04747e-05 0.000130211 2.25389e-21)
(0.000178479 -3.7997e-05 3.50267e-21)
(0.00107671 0.000143642 0)
(7.02649e-05 7.78109e-05 -1.45204e-21)
(0.000634624 0.000348608 6.08206e-20)
(5.98148e-05 0.00014424 0)
(0.000224384 -3.22624e-05 0)
(8.02775e-05 -1.81575e-05 -2.35539e-22)
(0.000563218 6.01599e-05 -2.31722e-20)
(0.00332913 0.00350428 -1.89616e-20)
(0.00328402 0.00354324 9.64855e-21)
(0.00367764 0.00386682 1.0328e-22)
(0.00386793 0.00325465 2.08024e-20)
(0.00369501 0.00311617 2.44344e-20)
(0.0034265 0.00371855 0)
(0.00367221 0.00387372 -8.26316e-21)
(0.00326158 0.0035716 -1.65215e-20)
(0.00341494 0.00374044 0)
(0.00350674 0.00367432 0)
(0.00356627 0.00325948 -2.09846e-20)
(0.00350533 0.00368082 -1.78752e-20)
(0.00359208 0.00324559 1.13355e-20)
(0.00327053 0.00355433 8.97395e-21)
(0.00367257 0.003877 0)
(0.00347119 0.00368727 1.05978e-20)
(0.00335378 0.00352279 3.5225e-20)
(0.00347149 0.00369329 1.91527e-20)
(0.00365948 0.00388431 0)
(0.00367547 0.00387108 0)
(0.00349207 0.0036655 -3.07273e-20)
(0.00367315 0.00387812 1.06367e-20)
(0.00328012 0.00355833 0)
(0.00327969 0.0035447 0)
(0.00362628 0.00391581 0)
(0.00361601 0.00391756 -1.29487e-20)
(0.0034315 0.003699 0)
(0.00330707 0.00353087 -6.83415e-21)
(0.00342759 0.00371303 -1.10811e-20)
(0.00361464 0.00390196 7.9805e-21)
(0.00366852 0.00388354 -1.07849e-20)
(0.0036057 0.00391497 2.77572e-20)
(0.00324772 0.00356578 0)
(0.00361396 0.00391487 -1.34682e-20)
(0.00362306 0.0039148 0)
(0.00361706 0.00391696 -1.7893e-20)
(0.00326941 0.00355059 6.9021e-21)
(0.00342951 0.00372239 -1.64485e-20)
(0.00396656 0.00357324 0)
(0.00333076 0.00352683 -2.41374e-20)
(0.00350449 0.00368778 -1.16049e-20)
(0.00360065 0.00394134 -2.24213e-20)
(0.00333401 0.00351037 -2.45266e-20)
(0.00361086 0.0039343 0)
(0.00333438 0.00350689 0)
(0.00366746 0.00388488 2.0979e-20)
(0.00394842 0.00359002 2.40217e-20)
(0.00341539 0.00373211 5.79691e-21)
(0.00395436 0.00357524 -1.13562e-20)
(0.00343496 0.00371151 9.54639e-21)
(0.00362284 0.00391544 1.03429e-20)
(0.00333216 0.00350322 -1.3652e-20)
(0.0033278 0.00351507 1.41257e-20)
(0.00325799 0.00356184 1.08504e-20)
(0.00342572 0.0037177 -9.86908e-21)
(0.00361312 0.00392438 -1.06909e-20)
(0.00333467 0.00350693 0)
(0.00332963 0.00351005 1.35265e-20)
(0.00324512 0.00357854 -1.12698e-20)
(0.00361167 0.00393405 -9.61143e-21)
(0.00348945 0.00367619 -2.29851e-20)
(0.00342444 0.00373006 -8.8715e-21)
(0.00347088 0.00364893 0)
(0.00348634 0.00365987 -1.10133e-20)
(0.0032981 0.00354543 -1.36196e-20)
(0.00369113 0.00387607 -2.43191e-20)
(0.00332763 0.00351473 -4.14e-20)
(0.0034778 0.00365735 2.35109e-20)
(0.00333187 0.003513 -1.48186e-20)
(0.00327705 0.00355649 2.04669e-20)
(0.00340575 0.00374113 0)
(0.00359157 0.0039453 0)
(0.00332941 0.00351736 2.99652e-20)
(0.00346913 0.00363018 0)
(0.00360434 0.00392878 5.03716e-21)
(0.00341837 0.00372539 4.66466e-21)
(0.00329166 0.0035556 8.24742e-21)
(0.0036599 0.00387519 0)
(0.00337344 0.00347842 -2.26079e-20)
(0.00332801 0.00351429 0)
(0.00347434 0.00362654 2.48316e-20)
(0.00366361 0.00387504 -1.18933e-20)
(0.00327721 0.0035595 8.94435e-21)
(0.00368166 0.00386843 0)
(0.00342405 0.00359612 1.24966e-20)
(0.0036991 0.00387955 2.7825e-20)
(0.00365433 0.00388264 1.2413e-20)
(0.00396536 0.00328325 2.84707e-20)
(0.00358633 0.00325215 1.58455e-20)
(0.00332667 0.00351729 -1.51649e-20)
(0.00328996 0.00354183 -1.58069e-20)
(0.0039477 0.00325383 1.31491e-20)
(0.00368355 0.00388186 0)
(0.003417 0.00369484 4.8118e-21)
(0.00359616 0.00325561 -3.16892e-20)
(0.00359968 0.00388731 6.46026e-21)
(0.00337461 0.0037072 6.38038e-21)
(0.00337173 0.00372553 1.77631e-21)
(0.00357162 0.00391152 -3.07646e-21)
(0.00397456 0.00357974 3.06502e-20)
(0.0035712 0.00390406 0)
(0.00355905 0.00388343 3.63302e-21)
(0.00331239 0.0034604 1.60501e-20)
(0.00336778 0.00367857 4.71842e-21)
(0.00333334 0.00340104 3.42201e-20)
(0.00366299 0.00386028 6.24756e-20)
(0.000814685 0.000538327 -1.32645e-20)
(-2.21766e-05 0.00100063 4.81461e-23)
(3.49118e-05 2.91371e-05 -1.35119e-20)
(5.03653e-05 4.80331e-06 -3.17125e-21)
(6.45366e-05 0.000268768 0)
(0.000116228 -3.04265e-05 -1.09839e-20)
(6.74961e-05 -1.33967e-06 4.62992e-22)
(0.000626823 0.000499361 -5.54652e-24)
(0.00328966 0.0033281 -3.12479e-20)
(0.00343468 0.00370641 9.41163e-21)
(0.00327652 0.00332977 0)
(0.00327399 0.00364929 5.90253e-21)
(0.00344557 0.00385177 1.51347e-20)
(0.00326368 0.00365404 -5.29334e-21)
(0.00361309 0.00367268 3.63744e-20)
(0.00311773 0.0034965 0)
(0.00343187 0.00348174 1.11333e-20)
(0.00343848 0.00385853 -1.00108e-20)
(0.00326127 0.00365881 -2.08011e-22)
(0.00362383 0.00367586 -1.51937e-20)