/*--------------------------------*- C++ -*----------------------------------*\
  =========                 |
  \\      /  F ield         | OpenFOAM: The Open Source CFD Toolbox
   \\    /   O peration     | Website:  https://openfoam.org
    \\  /    A nd           | Version:  8
     \\/     M anipulation  |
\*---------------------------------------------------------------------------*/
FoamFile
{
    version     2.0;
    format      ascii;
    class       volVectorField;
    location    "0.2";
    object      U;
}
// * * * * * * * * * * * * * * * * * * * * * * * * * * * * * * * * * * * * * //

dimensions      [0 1 -1 0 0 0 0];

internalField   nonuniform List<vector> 
5119
(
(0.000673118 0.00117927 1.40612e-22)
(0.000225076 6.66584e-05 5.64302e-21)
(0.000835247 1.82251e-05 -3.19707e-21)
(0.000591186 0.000741575 -2.51522e-23)
(0.000784402 0.00112556 2.99128e-22)
(0.000900952 0.000169359 1.6228e-21)
(0.000274487 0.000204862 -1.73481e-21)
(3.43282e-05 -4.45501e-06 -8.40325e-23)
(0.000291367 0.000941418 -1.5102e-21)
(0.000733448 0.00129014 1.08421e-22)
(0.000640168 0.000771958 2.91859e-23)
(0.00052416 0.000948381 -4.90281e-22)
(0.000528309 0.000939468 -3.13379e-22)
(0.000696422 0.000471234 1.37056e-21)
(0.000603022 0.00111383 -1.04498e-22)
(0.000586067 0.000912792 0)
(0.00076068 0.00118039 4.24981e-22)
(0.000699468 0.00113076 -1.38971e-22)
(0.000701056 0.00131479 4.27965e-22)
(0.000536349 0.00100048 9.51367e-23)
(0.000536105 0.000995329 4.23984e-22)
(0.000475233 0.000863075 1.15421e-21)
(0.000465627 0.000872414 -2.3079e-22)
(0.000576813 0.00103509 1.48708e-22)
(0.000525355 0.000938608 0)
(0.000723915 0.00128348 9.91721e-22)
(0.000482258 0.000864227 0)
(0.000495034 0.000881353 1.21763e-22)
(0.000509762 0.000906401 4.37815e-22)
(0.000545208 0.000880819 1.43821e-22)
(0.000629728 0.00100294 -4.99077e-22)
(0.0005232 0.00093212 -1.88268e-23)
(0.000489579 0.000873419 7.90908e-22)
(0.000572428 0.00104135 0)
(0.000716988 0.00128885 -1.47511e-22)
(0.000582172 0.000940465 4.17633e-22)
(0.000555195 0.000896573 3.97412e-22)
(0.000566214 0.000914532 5.61466e-23)
(0.000405363 0.000859429 3.70677e-24)
(0.000476152 0.000863125 1.35997e-21)
(0.000542998 0.000154075 1.9853e-23)
(0.000581264 0.00117719 -6.24352e-22)
(0.000639503 0.00108832 3.08356e-22)
(0.000557072 0.000971026 0)
(0.000538198 0.000942021 -3.49042e-22)
(0.000579117 0.000163612 -2.58514e-21)
(0.000664158 0.00116427 -1.0615e-21)
(0.000560023 0.000962529 0)
(0.000634502 0.00108535 3.06307e-23)
(0.000639 0.0011001 -3.01595e-22)
(0.000575922 0.00040104 -2.07389e-21)
(0.000136318 0.000626308 -1.42633e-21)
(0.000895429 8.06884e-05 -6.29684e-22)
(0.000610664 9.31758e-05 2.73206e-21)
(2.11044e-05 0.00043928 -4.17574e-21)
(0.000524598 0.000866311 1.15898e-21)
(0.000655018 0.000786636 2.46908e-23)
(3.71814e-05 -9.01861e-07 1.18133e-21)
(0.00063655 0.00108635 0)
(0.000757806 0.0013687 0)
(0.000427764 0.000834786 -2.04356e-21)
(0.000514121 0.000904709 3.10707e-21)
(0.000572593 0.00103249 0)
(0.000635919 0.00111713 1.69915e-21)
(0.000433341 5.7698e-05 1.57412e-21)
(0.000622962 0.00108644 1.21123e-21)
(0.000726011 0.000351734 1.54981e-23)
(0.000843095 0.000579159 1.41208e-21)
(0.000662459 0.001198 0)
(0.000691621 0.000498888 -4.17064e-22)
(0.000198307 0.000371721 9.89902e-24)
(0.000193086 -1.81401e-05 -6.06283e-21)
(0.000872142 0.000331551 1.86654e-21)
(0.000511139 0.000906933 5.53702e-22)
(0.000543928 0.000906708 -1.81954e-21)
(0.000701987 0.00116658 0)
(0.000311843 0.000113788 1.26689e-21)
(0.000641614 0.000260824 7.70675e-22)
(0.000779958 0.00137888 0)
(0.000682445 0.00121418 -1.03827e-21)
(5.62889e-06 0.000733024 0)
(0.000937897 0.000539093 0)
(0.000738035 0.0013096 0)
(0.000504922 0.00116823 3.89492e-23)
(0.000578989 0.000116261 0)
(0.000531555 0.00100765 3.50604e-22)
(0.000746075 -5.25604e-05 2.83465e-21)
(0.000540711 0.000994132 2.77889e-21)
(0.000398865 0.000925499 9.62721e-23)
(0.000418728 0.000971042 0)
(0.00040696 0.000944116 0)
(0.000391626 0.00090946 0)
(3.66448e-05 -1.15442e-06 -1.90979e-21)
(0.00041347 0.000776222 -1.99134e-21)
(0.000584561 0.0010452 0)
(0.000372205 0.000672722 3.30433e-21)
(0.000882896 -2.84557e-05 0)
(0.000486643 0.000886801 2.27489e-21)
(0.000664071 0.000755534 1.96306e-21)
(0.000491666 0.000883672 -2.29637e-22)
(0.000644479 0.00118921 9.88897e-22)
(0.000524489 0.000958096 0)
(0.0013532 0.000988437 -3.31694e-21)
(0.00079643 0.00136843 -5.95696e-22)
(0.000310706 0.000117613 2.74737e-21)
(3.81926e-05 4.83134e-06 1.40639e-21)
(0.000679931 0.00111682 -2.79139e-21)
(0.000554254 0.00030303 5.97196e-22)
(0.000796621 0.000560819 1.75506e-22)
(0.000596414 2.88015e-05 0)
(0.000436024 0.00108363 -3.60308e-21)
(3.67926e-05 1.7648e-06 -6.91366e-25)
(0.00024593 -2.91505e-05 1.08108e-21)
(0.000610802 0.00109937 -3.01247e-22)
(0.000325366 0.000166481 5.63192e-21)
(0.00042466 0.000596274 -3.11941e-22)
(0.00050675 0.000802103 -2.52158e-21)
(3.99381e-05 5.4994e-06 -2.63872e-21)
(0.000462949 0.000563653 -5.36113e-21)
(0.000523964 0.00107465 1.64658e-22)
(0.000706767 0.000353143 0)
(0.000636516 0.00108195 -9.31891e-22)
(0.000148429 0.000795305 -6.74289e-22)
(0.000530205 0.000890093 1.87955e-21)
(0.000664718 0.00118016 -2.47956e-21)
(0.000758211 0.00129158 7.30691e-22)
(0.000576751 0.000962671 -7.99887e-24)
(0.000780633 0.00139987 -3.99409e-22)
(0.000652215 0.00114668 6.49754e-22)
(0.00050988 0.000860102 -4.1196e-22)
(0.000560281 0.000972086 -1.95994e-21)
(0.000501848 0.000881666 -3.4921e-22)
(0.00067833 0.00122923 -6.1953e-22)
(0.000603591 0.00108002 -6.73707e-22)
(0.000761976 1.13035e-05 -1.83691e-21)
(0.000553721 0.000304702 1.21586e-23)
(0.000568717 0.00108361 0)
(0.00055686 0.000951369 0)
(0.000247934 0.00032453 1.67625e-21)
(0.00064303 0.00113364 0)
(0.000547016 0.000969237 -1.46947e-21)
(0.000530603 0.000953567 5.13746e-22)
(0.000523728 0.000957945 4.32148e-22)
(0.000514652 0.000951108 1.70359e-22)
(0.000581493 0.00102414 5.29631e-22)
(0.000563505 0.000994512 2.48015e-22)
(0.000513504 0.000896938 -1.52298e-22)
(0.000539194 0.000941158 0)
(0.000524128 0.000915393 -1.62366e-22)
(0.000753638 0.000803434 -4.68889e-22)
(0.000495546 0.000936172 0)
(0.000886672 0.000154292 0)
(0.000590831 0.000992037 0)
(0.000352933 0.000777114 3.22572e-21)
(0.000326724 0.000536517 2.95499e-21)
(0.00059974 0.00122768 4.66872e-23)
(0.000344196 0.000643631 3.98274e-21)
(0.000861661 3.59338e-05 0)
(0.000269039 0.00026141 1.36701e-21)
(0.000157611 0.00067938 2.94432e-22)
(0.00079762 0.00125627 -1.42151e-21)
(7.22045e-06 1.8622e-06 0)
(0.000137633 0.000264984 -2.97604e-21)
(0.000704776 0.00109099 -1.35049e-21)
(3.84832e-05 2.18303e-06 6.56013e-22)
(0.000933193 0.000256777 2.8724e-21)
(3.20056e-05 0.000199238 -8.11545e-21)
(0.000154602 -1.27373e-05 -1.93891e-21)
(4.04916e-05 -1.88704e-06 2.32757e-21)
(0.000155491 0.000579214 0)
(0.000255458 0.000347959 2.20377e-22)
(0.000806936 0.00124671 6.51187e-22)
(0.00044562 0.000544369 3.05495e-21)
(0.000445844 0.000440613 -2.99382e-22)
(0.000385447 0.000586067 3.11413e-21)
(0.000526932 0.000497878 -2.90234e-21)
(0.000138054 0.000331597 3.1274e-23)
(0.000748038 0.00125641 1.53151e-22)
(3.74782e-05 7.01755e-06 -2.21365e-21)
(0.000652974 0.00120317 3.53494e-22)
(0.000857967 0.000343953 -3.926e-21)
(0.000696717 0.000380135 0)
(0.000608528 0.000936126 0)
(0.000584516 0.00101379 -2.10491e-21)
(0.000252758 7.36978e-05 -3.63964e-21)
(0.000430524 0.000701373 -5.25238e-22)
(0.000446137 9.03503e-05 1.49985e-21)
(0.000310981 0.000297742 -1.4297e-21)
(0.000554469 0.000373428 -2.26394e-21)
(0.000253143 0.000183429 -1.44882e-21)
(0.000144598 0.000683626 0)
(0.00051184 0.00100266 -5.94972e-22)
(0.000612262 0.00112864 1.38888e-21)
(0.000504159 0.000525478 2.72154e-21)
(2.6299e-05 -5.46606e-06 0)
(0.000257091 0.000669942 0)
(0.000714798 5.24358e-05 -1.78407e-21)
(0.000659951 0.000383552 6.8552e-21)
(0.000236562 0.00074126 1.54812e-21)
(0.000944584 0.000211608 2.86824e-22)
(0.000132399 -1.20132e-05 -5.16293e-21)
(0.00116109 0.00166071 0)
(4.22866e-05 3.39713e-06 -2.35366e-22)
(0.000670327 0.00117998 -4.49678e-22)
(0.000596864 0.00103496 0)
(0.000623659 0.00107292 3.80317e-22)
(0.000541236 0.000927571 1.5848e-21)
(0.000463364 0.000961902 -4.91166e-21)
(0.000306972 0.000402797 1.0391e-21)
(0.000762897 0.000554469 -5.89875e-21)
(0.000160489 0.000246457 2.94205e-21)
(0.000444244 0.00108401 6.16931e-23)
(0.000939176 0.000236041 -5.91424e-23)
(0.000513928 0.00124228 -1.85659e-21)
(0.000580968 0.000302905 5.51653e-22)
(0.000325889 0.000402691 -1.33346e-21)
(0.000239545 0.000313161 1.03066e-24)
(0.000382858 0.000931209 -1.64244e-21)
(0.000250202 0.000626347 5.17027e-23)
(0.000328428 0.000289678 9.92466e-22)
(0.000880825 0.00134248 1.41975e-21)
(0.000408036 0.000625062 0)
(3.24634e-05 7.21885e-06 0)
(0.000464399 0.000942481 -1.06154e-21)
(0.000431739 0.000597665 -1.542e-22)
(0.000514946 0.000793193 0)
(0.000235216 0.000106915 -9.36788e-24)
(0.000677141 0.000209145 0)
(0.000679454 0.00119175 0)
(0.000578384 0.00104879 3.53219e-22)
(3.58121e-05 1.77292e-05 -5.21623e-21)
(0.000649509 0.00114935 -7.08493e-22)
(0.000526949 0.000954735 1.13788e-21)
(0.000665692 0.00117513 2.37515e-21)
(0.000804773 0.00137355 0)
(0.000272826 0.000367862 1.26847e-22)
(0.000566687 0.00108477 2.33137e-21)
(0.000517321 0.0008972 0)
(2.78386e-05 0.000383488 4.50701e-22)
(0.000272191 0.000771675 -3.1095e-22)
(0.000416962 0.000574713 -3.40085e-21)
(0.000134189 0.000243645 1.65403e-23)
(0.000372946 0.000700905 5.90372e-23)
(0.00117062 0.00128811 0)
(0.000691279 0.00134295 -1.85268e-21)
(0.000715782 0.00129222 -4.01726e-22)
(0.000652216 0.00111725 -5.5517e-22)
(0.000300286 0.000368169 1.956e-21)
(0.000495523 0.000945082 5.30437e-22)
(0.000509584 0.000921305 2.3304e-22)
(0.000553284 0.00103255 0)
(0.000817914 0.00138027 0)
(0.0005526 0.000986926 0)
(0.000609495 0.00109907 4.21856e-22)
(0.000570562 0.000974598 -6.5043e-22)
(0.000515996 0.000928229 -1.46014e-21)
(0.000586855 0.00100242 0)
(0.000511581 0.000902319 -2.92031e-22)
(0.000753509 0.00146724 6.54344e-22)
(0.000852807 0.00049774 -1.00571e-21)
(0.000289111 0.000280827 0)
(0.000108779 -0.000183928 -9.4592e-22)
(0.00114057 0.000827053 0)
(0.000596016 0.00109875 6.36035e-22)
(0.00053391 0.000933021 5.85133e-22)
(0.000552902 0.000959523 3.05577e-22)
(0.000630378 0.0011389 -8.08776e-22)
(0.000535842 0.000954697 0)
(0.000171711 0.000304061 2.26591e-22)
(0.00077851 0.00129537 -8.09029e-22)
(0.000537434 0.000351947 6.14291e-22)
(1.43906e-05 -9.41527e-06 0)
(0.000696295 0.00119642 6.54534e-22)
(0.000647942 0.00119124 2.86522e-21)
(0.000842151 0.0014281 1.14805e-22)
(0.000863436 7.26572e-05 3.66595e-21)
(0.00135695 0.00119159 2.73049e-21)
(0.000506735 0.000862272 0)
(0.000693462 0.00120522 6.40935e-23)
(0.000825805 0.00152213 1.59193e-21)
(0.000632697 0.00109519 1.64585e-21)
(0.000577748 0.00107108 -5.00078e-22)
(0.000561828 0.00104192 -7.12212e-22)
(0.000582006 0.00103202 5.31822e-22)
(0.000574334 0.00101852 0)
(0.000695197 0.00119543 -8.75526e-22)
(0.000833552 0.00153109 4.36332e-22)
(0.000607051 0.00112545 0)
(0.000864063 0.0014848 2.57079e-22)
(0.000659397 0.00114412 6.73084e-23)
(0.000648374 0.0011604 -1.62689e-21)
(0.000569912 0.00100595 -5.14229e-22)
(0.000566365 0.00101147 7.09439e-22)
(0.000154278 0.000237667 6.57662e-21)
(0.000764181 0.00139159 2.11642e-22)
(0.000487738 0.00105341 -1.78771e-21)
(0.00059033 0.0010361 0)
(0.000514256 0.000538261 2.77245e-22)
(2.52429e-05 0.000100124 1.75093e-21)
(0.000543361 0.000998534 0)
(0.00130269 0.000288994 0)
(0.000743035 0.00126247 7.65914e-22)
(0.000253745 0.000521958 0)
(0.000833861 6.5735e-05 3.22476e-21)
(0.000478629 0.000531401 0)
(0.000989521 0.000247491 0)
(0.000874081 0.000289609 0)
(0.000640746 0.00107137 1.74356e-22)
(0.000439041 0.000647547 3.66622e-22)
(0.000641582 0.000909334 -3.06369e-23)
(0.000613387 0.00107525 -2.45643e-22)
(0.000546433 0.000904735 0)
(0.000527254 0.000885964 1.06631e-21)
(0.000577074 0.000922512 -4.19702e-22)
(0.000806764 0.00135723 0)
(0.000607404 0.00105101 5.2571e-22)
(0.000251442 8.28015e-05 7.58702e-21)
(0.00078017 -0.000203641 2.32467e-21)
(0.000723803 0.00132359 -5.22389e-22)
(0.000692746 0.00130748 -1.00226e-21)
(0.000658192 0.000798012 2.04949e-22)
(0.000480294 0.00086373 5.78301e-24)
(0.000676125 0.00113961 -9.97686e-22)
(0.000871183 0.000118942 0)
(0.000392916 0.000741346 -1.66338e-21)
(0.000534209 0.000945034 -4.41716e-22)
(0.000787151 0.000658241 -3.62595e-21)
(0.000641866 0.00113789 -7.56583e-22)
(0.000623085 0.00118049 1.98412e-23)
(6.14527e-05 0.000576448 -3.17582e-21)
(0.00053331 0.00101233 1.08472e-21)
(0.000766661 0.00132985 -1.39274e-21)
(0.000607408 0.00109 2.13518e-22)
(0.000259415 0.000329095 1.34229e-21)
(0.000900089 1.04073e-05 0)
(0.000768125 0.00131223 2.23957e-22)
(0.00053608 0.000970259 -4.9064e-22)
(0.000692697 0.00126023 1.8559e-21)
(0.000684298 0.00120224 -2.84161e-22)
(0.0007995 0.00132729 -2.84455e-22)
(0.000595708 0.00102381 1.67686e-21)
(0.000626323 0.00102354 4.5533e-22)
(0.000645484 0.000778819 5.52515e-23)
(0.000793797 0.00136816 -5.19112e-22)
(0.000574737 0.000987843 -1.3772e-21)
(0.000538619 0.000905238 -1.59088e-22)
(0.000660379 0.00108592 -6.7673e-22)
(0.000518739 0.000932443 0)
(0.00033603 0.000557185 1.80954e-21)
(0.00026895 0.000661629 0)
(0.0005873 0.00102342 -6.26718e-22)
(0.000563072 0.00087591 -1.58939e-21)
(0.000640649 0.00100105 5.81713e-22)
(0.000732811 0.00106424 -1.32449e-21)
(0.00049294 0.00109803 -1.00219e-21)
(0.000574005 0.000920049 -2.99699e-21)
(0.000625356 0.000960222 0)
(0.000621592 0.00095193 0)
(0.000600392 0.000933027 -4.17903e-22)
(0.000710952 0.00123774 1.737e-21)
(0.000762799 0.00121655 6.9404e-22)
(0.000562297 0.000900066 -4.85961e-23)
(0.00055464 0.000925381 0)
(0.000513337 0.000899137 9.46628e-22)
(0.000609548 0.000870152 -3.47653e-22)
(0.000570325 0.000951968 -6.34143e-23)
(0.000785586 0.00118347 0)
(0.000521784 0.000874188 4.56912e-22)
(0.000568775 0.000894928 -1.29028e-21)
(0.000585403 0.000919023 6.9144e-22)
(0.000559991 0.000872584 0)
(0.000761114 0.00118187 -5.07309e-22)
(0.000813105 0.00134933 1.73902e-21)
(0.000834256 0.001285 1.53831e-21)
(0.000494262 0.000683256 -1.62333e-23)
(0.000749828 0.00062454 2.93828e-21)
(0.000594575 0.000419652 2.09251e-21)
(0.000501354 0.0005369 -1.66479e-21)
(0.000604434 0.00109432 3.78682e-22)
(0.000972904 1.12731e-05 1.70062e-21)
(0.000153691 0.000651802 0)
(0.000288055 0.000253989 -1.79251e-21)
(0.00100819 0.00154961 -4.77823e-22)
(0.000755238 0.00126042 2.7217e-22)
(0.000452816 0.000918193 0)
(0.000661721 0.00118164 1.56025e-21)
(2.39549e-05 8.84125e-07 -3.5433e-25)
(0.00058573 0.000977137 4.06673e-22)
(0.000654806 0.00108147 2.57281e-22)
(0.000550225 0.000920943 9.80843e-22)
(0.00107144 0.000245184 -3.27152e-21)
(0.000863641 0.00019002 -2.16136e-21)
(0.000648107 0.00116163 -1.18201e-21)
(0.000567911 0.000289129 -5.40538e-22)
(0.000537079 0.000904616 0)
(0.000533315 0.000895705 5.34555e-22)
(0.000540394 0.000884939 9.72829e-23)
(0.000582825 0.000966237 -3.58641e-22)
(0.000565696 0.000938734 -1.73076e-22)
(0.000738881 0.000388006 -2.70334e-21)
(0.000586538 0.00104476 4.88759e-22)
(0.000357218 0.000273165 5.30778e-22)
(2.0049e-05 -8.00036e-06 -2.74651e-24)
(0.000595041 0.00109739 7.29975e-22)
(0.000626892 0.0011278 -1.89399e-21)
(0.0010368 0.000595392 -1.88625e-23)
(2.83256e-05 0.000787287 0)
(3.93503e-05 9.46847e-06 1.22455e-21)
(9.10455e-05 0.000499329 0)
(0.000536913 0.000841269 -1.23508e-21)
(0.000355037 0.000931788 0)
(0.000691657 0.00122358 0)
(0.000583808 0.000955273 9.20406e-22)
(0.000558988 0.000994963 0)
(0.000532997 0.000948699 -6.63899e-23)
(0.000543586 0.000967685 1.89103e-22)
(0.000243312 0.000776356 -2.96256e-21)
(0.000537679 0.000986707 -1.65585e-21)
(0.00059223 0.00102828 0)
(0.000738767 0.000279679 4.04893e-21)
(0.000558863 0.000265014 4.57627e-21)
(0.000511358 0.000840109 0)
(0.000446998 0.000549257 3.2998e-21)
(0.000567105 0.000354798 1.47265e-21)
(0.000278777 0.000344079 -4.61698e-22)
(0.000498317 0.00063167 3.97795e-22)
(0.000859166 0.000276065 3.01662e-21)
(0.000543379 0.000969411 6.30632e-22)
(0.000473163 0.00126855 0)
(0.00079316 5.76277e-05 1.18934e-21)
(0.000652091 0.00114352 3.87009e-22)
(0.000689281 0.000902043 2.84282e-22)
(0.00061468 0.001082 -3.02207e-23)
(0.00101069 0.000229584 -3.91597e-21)
(0.000276259 0.00051238 0)
(0.000625434 0.000426209 0)
(0.000566761 0.0010261 -1.23159e-21)
(0.000546128 0.00104066 -2.22868e-21)
(0.00085874 0.000106103 3.24965e-21)
(0.000377893 0.000311907 2.16401e-21)
(-4.80998e-05 0.000685377 2.56351e-22)
(0.000777213 0.000385547 0)
(0.000359842 0.000775275 9.07646e-22)
(0.000468792 0.000923674 0)
(0.000486789 0.00095855 8.89897e-23)
(0.000500676 0.0009856 0)
(0.000477181 0.000939769 0)
(0.000310902 0.000273852 4.64398e-25)
(0.000698712 0.000975022 3.15723e-22)
(0.000705795 0.00122224 2.5665e-22)
(0.00127892 0.000811734 -1.58314e-21)
(3.62229e-05 5.77627e-05 0)
(0.000764699 0.00132217 -1.18892e-21)
(0.000463195 0.000936585 0)
(0.000645106 0.00127481 0)
(0.000672041 0.00124734 -8.07297e-22)
(0.000497755 0.000899075 -2.00631e-23)
(0.000472726 0.000858064 3.5852e-22)
(0.000471558 0.000908064 2.33529e-22)
(0.0004852 0.000934447 -1.00985e-21)
(0.000489797 0.000889349 -1.47968e-21)
(0.000684267 0.00131477 -5.73192e-22)
(0.000512242 0.000910994 -2.6398e-24)
(0.000502227 0.000876191 0)
(0.000319403 0.000381498 -4.90259e-22)
(0.000492056 -0.000120186 2.44561e-21)
(0.000716133 0.00117992 -1.5319e-21)
(0.000580425 0.0010504 -3.29153e-22)
(0.000623848 0.000975749 -4.63995e-22)
(0.000508096 0.000857991 5.11064e-22)
(0.000629138 0.000987348 1.0597e-21)
(0.000667518 0.0010828 4.93593e-22)
(0.00055083 0.000943664 1.32294e-21)
(0.000542626 0.000903351 1.30289e-21)
(0.000576032 0.000964588 0)
(0.000623756 0.000943445 -1.15177e-21)
(0.000554375 0.000925351 0)
(0.000701281 0.00118067 -7.66901e-22)
(0.000784768 0.00119246 6.22998e-22)
(0.000567576 0.000887572 2.39146e-22)
(0.000570667 0.000884969 -5.21121e-22)
(0.000581679 0.000913473 -1.2842e-21)
(0.000504532 0.000859449 8.37344e-22)
(0.000566859 0.000885435 -1.32607e-21)
(0.000783846 0.00118842 -1.55486e-21)
(0.000488342 0.000854447 3.15234e-23)
(0.000538002 0.000922831 -1.07932e-21)
(0.000521738 0.000897805 -4.53522e-22)
(0.00051419 0.000875895 -6.16073e-22)
(0.000702991 0.00117606 0)
(0.000825483 0.00129134 0)
(0.00078035 0.00127393 0)
(0.000175566 4.91871e-05 7.79086e-24)
(0.00111943 0.00059821 4.52046e-23)
(0.000441809 3.12245e-05 -7.7947e-22)
(0.000572418 0.0011034 -5.75305e-22)
(0.000682055 0.00117062 -2.11099e-23)
(0.000332028 0.000137791 4.74179e-21)
(0.000867819 3.77253e-05 0)
(0.000452394 0.000443212 1.09836e-24)
(0.00116739 0.000369543 2.99815e-21)
(0.000589227 0.000276816 1.73661e-21)
(0.000594354 0.00111628 2.88568e-21)
(4.64697e-05 0.000688583 -3.65543e-21)
(0.000776893 0.000216869 -3.57574e-21)
(0.000602236 0.00118491 0)
(2.4869e-05 0.000524591 0)
(0.000816122 0.00134324 1.35235e-21)
(0.00051419 0.00116065 -1.88401e-21)
(0.000479367 0.000799005 -4.05654e-22)
(0.000466209 0.000775863 -4.17395e-22)
(0.000646357 0.00107354 -1.48167e-22)
(0.000466895 0.000813498 -5.11251e-22)
(0.000634014 0.00110688 0)
(0.0005315 0.000943549 3.73324e-22)
(0.000623336 0.00114073 5.00264e-22)
(0.000328566 0.000584438 2.69134e-21)
(0.000413789 0.000459021 0)
(0.000199948 0.000227348 2.72655e-21)
(0.000390014 0.000562248 5.86376e-21)
(0.000776414 0.00133844 6.02614e-22)
(0.000614503 0.0010268 4.41357e-22)
(2.77827e-05 2.39755e-05 1.0397e-21)
(0.000359709 0.000947657 1.92514e-21)
(0.000133489 0.000704219 2.14496e-21)
(0.000777325 0.00145467 -5.00099e-22)
(0.000761217 0.00130967 2.83582e-22)
(0.000636023 0.00109804 3.56035e-23)
(0.000849265 0.000167932 7.78141e-22)
(0.000844991 0.00143702 2.11409e-21)
(0.000807637 0.00139416 -1.51396e-21)
(0.00075582 0.00129097 -2.03796e-22)
(0.000665955 0.00124312 0)
(0.000564267 0.000955794 0)
(0.000693114 0.00119111 3.20899e-22)
(0.000175818 0.000228097 -6.40743e-21)
(0.000824564 6.12012e-06 -3.96568e-21)
(0.000665416 0.000907536 4.09593e-22)
(0.000670677 0.000714514 -1.85923e-21)
(0.000677366 0.00112992 -2.39913e-22)
(0.000530605 0.000900862 -1.90929e-21)
(0.000698827 0.0011805 -5.9268e-22)
(0.00100758 0.00126166 6.1161e-22)
(0.000738845 0.00134836 4.81099e-22)
(0.000737781 0.00132357 0)
(0.000584058 0.000974473 1.71456e-21)
(0.000548722 0.000928411 -2.44253e-21)
(0.00110305 0.000400584 2.29116e-21)
(0.000658275 0.000702553 -1.7256e-21)
(0.000640929 0.00114034 1.2605e-22)
(0.000877171 0.000495074 2.57453e-23)
(0.000402219 0.000999391 0)
(0.000651946 0.00016254 0)
(8.53721e-05 -0.000130506 -1.67884e-22)
(0.000824485 -1.70221e-05 0)
(0.000621396 0.00106016 -1.99329e-21)
(0.000652559 0.00117215 -4.98588e-23)
(0.000609038 0.000997692 0)
(0.000373144 0.000636992 7.53148e-22)
(0.000490798 0.000830086 0)
(0.000394035 0.000781889 0)
(8.05376e-05 4.46943e-05 0)
(0.00047708 0.000758905 1.88855e-21)
(0.000791961 0.00123874 8.11941e-24)
(0.00085141 2.43638e-05 -3.75136e-21)
(3.55712e-05 1.10741e-05 -2.49998e-21)
(0.000785197 0.000459877 3.13431e-21)
(0.000637582 0.00114558 -8.24226e-23)
(0.000263043 0.000306163 -1.7979e-21)
(0.0018784 0.000243261 -2.36402e-21)
(0.000127839 0.000842627 -1.03367e-21)
(0.000684288 0.00120043 0)
(0.000841624 0.000196748 0)
(0.00086817 7.28045e-05 -3.12803e-21)
(0.0008864 0.000352975 -1.99779e-21)
(0.000746545 0.00124892 -5.9766e-22)
(0.000321794 0.000713424 -1.0858e-21)
(0.000604943 0.000252868 0)
(0.000804938 0.000231075 0)
(2.17816e-05 -1.09097e-05 -2.70235e-21)
(0.000219061 0.000893044 1.10859e-23)
(0.000208897 0.000857661 -9.94771e-23)
(0.000291409 0.00118872 0)
(0.00115139 0.000984694 2.03745e-21)
(0.000737453 0.000547288 -2.371e-23)
(0.000479375 0.00049915 -1.44151e-21)
(0.000999591 0.000163601 -2.0407e-24)
(0.000779711 -3.03446e-05 -1.91416e-21)
(0.000485122 0.000793717 5.65929e-24)
(0.000818845 0.00135511 3.88163e-22)
(5.15267e-05 4.61264e-05 6.33097e-25)
(0.00050373 7.25467e-05 -1.14806e-21)
(4.412e-06 3.06865e-05 -2.93499e-22)
(0.000734676 0.00125747 -3.63105e-22)
(0.000683906 0.000542701 2.46607e-21)
(0.000247225 0.000330168 -1.75898e-21)
(0.000847564 0.0016971 2.86359e-21)
(0.000570122 0.00105342 -5.25016e-22)
(0.000601522 0.00121973 -4.12371e-22)
(0.000585134 0.00118655 -7.59055e-22)
(0.00057077 0.00103839 -8.21459e-22)
(0.000835447 0.00152352 1.74455e-22)
(0.00060178 0.00111678 0)
(0.000784064 0.0014362 -7.91514e-22)
(0.00057106 0.0010327 2.05505e-22)
(0.00056493 0.00101065 0)
(0.00083722 8.15338e-05 4.26222e-21)
(0.000169706 0.000867984 -2.01954e-21)
(0.000176792 0.000204989 4.48009e-21)
(2.77104e-05 -9.75934e-05 2.7941e-21)
(0.000424754 0.00109079 -9.74374e-22)
(0.000845372 0.000197963 0)
(0.000884888 0.000505518 -3.94663e-22)
(0.000611037 0.00120616 1.95235e-21)
(0.000764922 0.00126118 4.897e-22)
(0.000808715 0.000176163 -7.70333e-25)
(0.000527504 0.000449723 1.78874e-21)
(3.20586e-05 4.79457e-05 0)
(0.000773321 0.00126778 0)
(0.000247599 0.000235852 -3.69483e-21)
(0.000600678 0.00029043 1.6645e-24)
(0.000282437 0.000323745 4.55776e-22)
(0.000453316 0.000732159 -5.42651e-22)
(0.000457155 0.000143255 1.43098e-21)
(0.000735239 0.00124954 0)
(0.000629422 0.00115461 -4.4381e-22)
(0.00129028 0.000742037 0)
(2.68278e-05 5.34736e-05 -9.31657e-21)
(0.000594001 0.000365528 -4.101e-21)
(0.000619517 0.000314033 5.33413e-22)
(0.000803651 0.000202059 -1.7212e-21)
(3.55486e-05 0.000482119 4.03237e-21)
(0.000565826 0.00106935 4.0042e-22)
(0.000610239 0.00121821 4.11247e-23)
(0.000563002 0.000981702 -4.27323e-22)
(0.000966527 0.000424892 7.03517e-21)
(0.000452821 0.000925076 -1.3811e-21)
(0.000702535 0.00125992 -2.07972e-22)
(0.000503577 0.000894062 0)
(0.000554056 0.0010147 0)
(0.000707932 0.00122455 8.13894e-22)
(0.000485411 0.000836907 -4.35473e-22)
(0.000499566 0.000860795 -4.23125e-22)
(0.00051101 0.000930409 0)
(0.000472561 0.000865883 1.91978e-22)
(0.000564763 0.00102965 0)
(0.000468325 0.000823838 0)
(0.000703403 0.00123375 -1.03245e-21)
(0.000436797 0.000465946 -1.10278e-21)
(0.000602024 0.00100463 1.95021e-21)
(0.000291205 0.000672893 -1.82086e-21)
(0.000712121 0.00143472 1.62295e-22)
(0.000726863 4.66796e-05 1.64654e-21)
(0.000839203 0.00021258 1.50552e-21)
(0.000352951 0.000591334 3.07041e-21)
(0.000247189 5.10677e-05 0)
(-9.0561e-07 0.000166069 -6.04386e-21)
(0.000623124 0.0012565 1.95248e-23)
(0.000820763 0.000287339 -1.83524e-21)
(3.46399e-05 7.55197e-06 -2.80301e-21)
(0.000541383 0.00103658 1.79253e-21)
(0.000516273 0.000930248 3.02047e-22)
(0.000393914 0.000923689 0)
(0.00064581 0.00111465 -2.67619e-21)
(0.000610044 -0.000101338 -6.28222e-21)
(0.000777735 0.00128667 5.09496e-22)
(0.000214084 0.000736807 0)
(9.62704e-06 0.000199784 -9.51065e-25)
(0.000748048 0.000652947 -2.23889e-22)
(0.000847632 0.00151378 0)
(0.000578853 0.00105364 2.30603e-22)
(0.00095105 5.20739e-05 0)
(6.41078e-06 0.000233958 2.28386e-21)
(4.06206e-05 0.000973419 -2.09733e-21)
(0.000116069 0.000639776 2.28718e-21)
(0.000635463 -0.000104645 2.68842e-21)
(0.000692154 0.00111683 -1.36315e-21)
(0.000151403 0.000307861 0)
(0.00054282 0.000145568 -8.82095e-22)
(0.000879425 0.000624426 -1.79224e-21)
(0.000819665 0.00135666 0)
(0.000719656 0.00120593 3.88899e-22)
(0.000624568 0.00106282 -9.94202e-22)
(0.000660059 0.00109662 0)
(0.00055595 0.000949061 -2.15115e-24)
(0.000490231 0.000192101 8.4689e-22)
(0.000346266 0.000596969 1.07939e-22)
(0.000334562 0.000572272 1.82345e-23)
(0.000465513 0.000794999 2.90186e-22)
(0.000739187 0.00127101 1.39574e-21)
(0.000873456 0.000189143 0)
(0.000823076 3.81217e-05 1.7538e-21)
(0.000568229 0.000947742 -1.05708e-21)
(0.000208001 0.000285905 -3.02535e-21)
(0.000536869 0.000935825 0)
(0.00039402 0.000620209 2.95296e-23)
(0.000450936 0.000710114 3.38376e-23)
(0.00066202 0.000101056 1.95567e-23)
(0.0006246 0.001171 -3.06758e-22)
(0.000533346 0.000986857 5.41841e-22)
(0.000538425 0.000978869 -1.51349e-21)
(0.000461406 0.00085775 0)
(0.000472761 0.000848626 6.69612e-22)
(0.000575692 0.000991205 0)
(0.000518305 0.000657628 2.15078e-25)
(0.000564126 0.000937357 0)
(2.86339e-05 0.000172966 -1.30013e-24)
(0.000586408 0.000168765 4.13581e-22)
(0.000474118 0.000515344 -1.54494e-21)
(9.8242e-05 4.96793e-05 0)
(0.000895827 0.00026576 0)
(0.000427491 5.3438e-05 -8.03019e-24)
(0.000605387 0.000735696 2.2073e-21)
(0.000890025 0.00063966 8.36285e-22)
(0.000576907 0.000995445 -2.76978e-22)
(0.000413319 0.000458644 9.32685e-22)
(0.000607387 0.00114783 -3.27326e-21)
(0.000643131 0.0011338 -3.27954e-22)
(0.000632134 0.00120409 2.41989e-21)
(0.000514399 0.000193978 0)
(0.00081131 0.000438955 -6.26606e-22)
(0.000558653 0.000980603 3.75028e-23)
(0.000284728 0.000301371 0)
(0.000606412 0.00102419 -7.23449e-22)
(0.000462987 0.000553669 -6.63329e-21)
(0.000164883 0.00018981 2.3758e-21)
(0.000764063 0.00134589 1.852e-22)
(0.000796988 0.000632738 -2.4657e-21)
(0.000435496 0.000964892 7.8658e-22)
(0.00105489 -2.75004e-05 -1.99589e-21)
(0.00067342 0.000543476 1.45311e-21)
(0.000797408 0.00123291 -1.06869e-22)
(0.00048152 0.00057888 1.59611e-23)
(0.00115449 0.000394179 -6.53074e-22)
(0.000394524 0.000322008 1.72006e-21)
(0.000297853 0.000497661 1.54584e-23)
(0.000303871 0.000507659 1.58954e-23)
(0.00031256 0.000522139 1.63033e-23)
(0.000376349 0.000628296 7.72944e-23)
(0.000292676 0.000489041 2.30918e-23)
(0.000177247 0.000183834 0)
(0.000710433 0.000527743 0)
(0.000593564 0.0010849 -2.59972e-21)
(0.000846718 3.14409e-05 0)
(0.000168158 3.47984e-05 2.42011e-21)
(2.01741e-05 6.51116e-05 4.37559e-21)
(0.000490168 0.000379928 -1.76482e-21)
(0.000400039 0.000624213 3.03321e-21)
(0.00108009 0.000665043 4.47714e-21)
(0.000578412 0.00107513 6.46221e-22)
(0.000584896 0.000996291 -1.43757e-21)
(0.000598042 0.0011085 3.14985e-22)
(0.000682874 0.00113858 -1.46847e-21)
(0.000833602 0.00156955 0)
(0.000585748 0.00100225 3.79649e-22)
(7.09585e-05 4.96006e-05 2.4833e-21)
(0.0008654 0.000295637 1.98567e-21)
(0.000485863 0.00100261 -1.43759e-21)
(0.000521775 0.00106947 -1.08959e-21)
(0.000553269 0.00114712 -4.37816e-22)
(0.000486499 0.000972903 5.18413e-22)
(0.000468962 0.000977318 5.94188e-22)
(0.000486199 0.000990617 1.23934e-21)
(0.000454724 0.00116849 4.6671e-23)
(0.000364971 0.000943909 0)
(0.000499946 0.00112406 -9.59634e-22)
(0.000500931 0.00102536 8.64509e-22)
(0.000500648 0.00121614 -5.69486e-22)
(0.000589352 0.00123779 -1.11705e-21)
(0.00043253 0.000916355 -3.07083e-22)
(0.000399984 0.000914512 6.22449e-22)
(0.000612871 0.00126232 0)
(0.000364004 0.000879032 -1.30049e-21)
(0.000460569 0.000919802 3.65286e-22)
(0.000473668 0.000945809 6.01839e-22)
(0.000457853 0.00115252 -2.51778e-22)
(0.000457239 0.000953024 -2.72123e-22)
(0.000478527 0.000995403 0)
(0.000465319 0.000967585 5.58046e-22)
(0.000426546 0.000973401 0)
(0.000457324 0.000913571 2.08938e-23)
(0.000625816 0.00129304 -5.48034e-23)
(0.000663987 0.00134215 2.91802e-23)
(0.000604219 0.00136357 0)
(0.000390969 0.000993895 4.67552e-21)
(0.000678382 0.00141054 8.11953e-22)
(0.000663894 0.00146806 -2.55177e-21)
(0.000445972 0.000947905 -1.16899e-21)
(0.00041578 0.000934522 0)
(0.000517795 0.00104037 -1.13683e-21)
(0.000562272 0.00121449 5.8493e-22)
(0.000467121 0.000954941 0)
(0.000866158 0.00014265 -1.48086e-21)
(0.000706111 0.00116036 3.06208e-22)
(2.67124e-05 6.57399e-06 1.42933e-21)
(0.000650707 0.00116341 -2.28027e-22)
(0.000986281 -2.19958e-05 -1.52301e-21)
(4.65339e-05 3.04037e-06 3.03047e-21)
(4.09144e-05 -3.06858e-06 0)
(0.000115599 0.00030124 1.58843e-21)
(0.000506944 0.000904505 -5.62198e-22)
(0.000556822 0.0010178 0)
(0.000594196 0.00104618 -2.69178e-21)
(1.46531e-05 5.39526e-05 -2.74729e-21)
(0.000231894 0.000463591 0)
(8.96768e-06 -1.07713e-05 -2.43428e-21)
(0.000735177 0.000134816 2.15164e-21)
(0.000816879 3.61027e-05 -7.35136e-22)
(0.000562012 0.000957896 2.1834e-21)
(0.000343789 0.00092697 -8.56164e-22)
(0.000268069 0.00038653 -1.35349e-22)
(0.000430368 0.000853884 2.42507e-21)
(0.000187338 0.000553482 -2.30771e-21)
(0.00105133 0.000374585 1.00786e-22)
(0.000174158 0.000763795 2.40563e-21)
(0.000802898 0.000344652 1.00482e-21)
(7.36206e-05 4.25399e-05 4.4623e-21)
(0.000964068 0.00021701 4.80093e-21)
(0.000577774 0.00100456 -2.06646e-23)
(0.000583256 0.000254093 -2.7675e-21)