/*--------------------------------*- C++ -*----------------------------------*\
  =========                 |
  \\      /  F ield         | OpenFOAM: The Open Source CFD Toolbox
   \\    /   O peration     | Website:  https://openfoam.org
    \\  /    A nd           | Version:  7
     \\/     M anipulation  |
\*---------------------------------------------------------------------------*/
FoamFile
{
    version     2.0;
    format      ascii;
    class       volScalarField;
    location    "38";
    object      p;
}
// * * * * * * * * * * * * * * * * * * * * * * * * * * * * * * * * * * * * * //

dimensions      [0 2 -2 0 0 0 0];

internalField   nonuniform List<scalar> 
591
(
0.00012399
0.000124008
0.000124019
0.000123976
0.000123977
0.000124054
0.000124046
0.000124009
0.000117035
0.000124019
0.000124185
0.000122916
0.000124025
0.000119789
0.00012401
0.000124063
0.000123959
0.000124048
0.000122034
0.000123392
0.000123982
-3.50342e-06
0.000124184
0.000123986
0.000124144
0.000124005
0.000124086
0.000124104
0.000124017
0.000124038
0.000124163
0.00012414
0.000124158
0.000124157
0.000124159
0.000123492
0.000124155
0.00012399
0.00012418
0.000124098
0.000124078
0.000124152
0.000124015
0.000124034
0.000124149
0.000124167
0.0001193
0.00012417
0.000124024
0.000124135
0.000124107
0.000124144
2.39457e-05
3.06047e-05
4.7876e-05
0.000124025
0.000124174
0.000124156
0.000124168
0.000123992
0.000124074
0.00012401
0.000124013
0.000124068
0.000122634
0.000124011
0.000124016
0.000124165
0.000120795
0.000124029
0.000124018
0.000124172
0.000124132
0.000124153
0.000124158
0.000124135
0.000123984
0.000124169
0.000123989
0.000123913
0.000123768
0.000124173
0.000124136
0.000124105
0.000124181
0.000124
0.000124092
0.000124164
0.000124127
0.000123881
0.000124141
0.000124075
0.000124098
0.000123995
0.000124179
0.000124134
0.000123698
0.000123595
0.000123731
0.000124184
0.000124096
0.000124004
0.000124188
0.000123978
0.000124187
0.000124016
0.000124007
0.000124137
0.000124177
0.000124182
0.000124067
0.000124155
0.000124029
0.000124162
0.000124182
0.000124158
0.000124107
0.000124114
0.000123664
0.000124074
0.000124013
0.000124027
0.000124067
0.000123999
0.000124153
0.000120288
0.000124185
0.00012416
0.000123768
0.000124159
0.000124003
0.000123692
0.00012412
0.000124117
0.000124162
0.000124023
0.000122669
0.000124187
0.000124008
0.000123666
0.000123732
0.000124089
0.000124164
0.000124179
0.000124175
7.61993e-06
3.68904e-06
2.08854e-06
3.81789e-05
3.67216e-05
5.68583e-06
3.8324e-05
1.57573e-05
3.72991e-05
1.78229e-05
0.000124011
0.000123999
0.000124172
0.00012417
0.000124176
0.000124174
0.000124168
0.000124166
0.00012417
0.00012417
0.000124131
0.000124177
0.000124172
0.000124178
0.000124108
0.00012347
0.00012418
0.000122203
0.000124152
0.000124161
0.000124103
0.000124019
0.000124161
0.000124171
0.000124166
0.000123576
0.000122552
0.000123128
0.000123536
0.000124164
0.000124169
0.000124106
0.000123986
0.000124162
0.000123041
0.000123393
0.000123987
0.00012416
0.000123856
0.000124154
0.000124162
0.000124134
0.000123827
0.000123975
0.00012416
0.00012417
0.000124164
0.000123958
0.000124147
0.000123954
0.000124179
0.000124009
0.000124005
0.000124175
0.000123794
0.000123976
0.00012402
0.000123638
0.000124125
0.000123784
0.00012407
0.000124073
0.00012415
0.000123555
0.000124063
0.000123964
0.000123972
0.000124135
0.000123891
0.000124054
0.000123962
0.000123868
0.000123966
0.000124181
0.000123934
0.000124174
0.000124014
0.000124149
0.000124005
0.000124003
0.000124182
0.000123906
0.000124172
0.000123899
0.000123945
0.000124016
0.000123992
0.000124022
0.000124012
0.000123773
0.000123981
0.000123929
0.000124142
0.000124002
0.000123837
0.00012413
0.000123396
0.00012394
0.000123298
0.000123168
0.000123998
0.000123963
0.000123996
0.000123992
0.000123948
0.00012418
0.000124039
0.000124121
0.000124039
0.000124042
0.000124055
0.000124129
0.000123783
0.000124175
0.000123822
0.000123714
0.000124029
0.000124149
0.000123733
0.000124175
0.000124076
0.000124119
0.000124133
0.000124024
0.000123984
0.000123794
0.000123959
0.000123975
0.000124029
0.000124074
0.000124148
0.00012416
0.000124169
0.000123938
0.000124035
0.000124154
0.000124162
0.000124159
0.00012396
0.00012417
0.000124041
0.000124145
0.000123926
0.000124171
0.000123918
0.00012415
0.000124054
0.000123985
1.16516e-05
2.19229e-05
0.000123956
0.000124012
0.000124177
0.000123947
0.000124178
0.000124025
0.000124171
0.00012415
0.000123905
0.000124145
0.000123979
0.000124172
0.000124018
-2.11868e-07
0.000123855
0.000124153
0.00012415
0.000123866
0.000123989
0.000124024
0.000124145
0.000123929
0.000124165
0.000124059
0.000124012
0.000124143
0.000123975
0.0001239
0.000123925
0.000124026
4.74518e-05
0.00012416
0.000124143
0.000124005
0.000124166
0.000124084
0.00012403
0.000124006
0.000124007
0.000124153
0.000124041
0.00012394
0.00012404
0.000123943
0.000124166
0.00012395
0.000123997
0.000124037
0.000124119
1.9886e-05
2.7314e-05
3.43157e-05
9.64221e-06
0.000123988
3.3074e-05
2.60247e-05
0.000124163
1.90879e-05
1.70487e-05
3.82102e-05
7.57497e-06
3.99647e-05
5.62224e-06
4.08609e-05
3.71282e-06
4.28443e-05
1.89401e-06
3.64128e-05
2.3202e-05
2.94526e-05
1.50105e-05
0.000123859
0.000124173
0.000124057
0.000124064
0.000120982
0.000124117
0.000124168
0.00012414
0.000123962
0.000124173
0.000124168
0.000124156
0.000124153
0.000123923
0.000124008
0.000124151
0.000124156
0.000123996
0.000123881
0.000123901
0.000123487
0.000123947
0.000124183
0.000124159
0.00012402
0.000124181
0.000123865
0.000124025
0.000123822
0.000122941
0.000124154
0.000124164
0.000124182
0.000123872
0.000124035
0.000123824
0.000124027
0.000124011
2.60568e-05
2.18818e-05
3.3053e-05
1.16288e-05
0.000124188
0.000123869
1.98318e-05
2.82687e-05
3.56227e-05
9.58542e-06
0.000123998
0.000124109
0.000123965
0.000123969
0.000124022
0.000124115
0.000123907
0.000124151
0.000124079
0.000123184
0.000123975
0.000123942
5.9329e-05
0.000123307
0.000124178
0.000123997
0.000123901
0.000124167
0.00012417
0.000123984
0.000123778
0.000124014
0.000124087
0.000123858
0.000124125
0.000122991
0.000123956
0.000123953
0.000124123
0.00010088
0.000123971
0.000123573
0.000123934
0.000124179
0.00012383
1.09057e-05
2.11244e-05
3.53889e-05
2.82162e-05
1.36845e-05
6.01459e-08
4.20783e-05
2.69941e-06
4.01727e-05
4.77431e-06
3.94368e-05
6.82196e-06
3.86451e-05
8.86447e-06
3.73119e-05
1.36874e-05
3.17427e-05
3.06033e-05
2.39498e-05
2.52688e-05
1.77869e-05
1.29534e-05
1.5735e-05
0.000124172
0.000102522
0.00012399
0.00012393
0.000124176
0.000124071
0.000124181
0.000123903
0.000124052
0.000124146
0.000124141
0.000124167
0.000123908
0.000124025
0.000123886
0.000124111
0.000123958
0.000124176
0.000124033
0.000123864
0.000123868
0.000124037
0.00012403
0.000124183
0.000124174
0.000124179
0.000124145
0.000124183
0.000123821
0.000124014
0.000124178
0.000123958
0.000124093
0.000124013
0.00012403
0.000123886
0.000124145
0.000124144
0.000123459
0.00012144
0.000123189
0.000123733
0.000124014
0.000123839
0.000124034
0.000124181
0.000124138
0.000124021
0.000123622
0.000123607
0.000124178
0.000124147
0.000124038
0.000124114
0.000123658
5.83645e-05
4.0141e-05
0.000124119
0.000124136
0.000123503
0.000122836
0.000123996
0.000123715
0.000123459
0.000124019
0.000123891
0.00012416
0.000124041
0.000124071
0.000119085
5.45102e-05
0.000124037
8.12544e-05
1.86868e-06
-3.8245e-07
0.000124007
0.000123978
0.000124146
0.000124183
0.000124169
0.000124177
0.000124171
0.000123994
-2.3002e-06
0.000122918
0.000124026
0.000124127
0.000122096
0.000124176
0.000124176
0.000122366
0.000124108
0.000124148
0.000121755
0.000124175
7.64212e-05
0.000124174
0.000123702
0.00012414
0.000122463
0.000123713
0.000123751
0.000124041
0.000124178
0.000124134
0.000124175
0.000124186
0.000124022
0.000116266
)
;

boundaryField
{
    back
    {
        type            empty;
    }
    ingreso
    {
        type            zeroGradient;
    }
    salida
    {
        type            fixedValue;
        value           uniform 0;
    }
    front
    {
        type            empty;
    }
    defaultFaces
    {
        type            zeroGradient;
    }
}


// ************************************************************************* //
