/*--------------------------------*- C++ -*----------------------------------*\
  =========                 |
  \\      /  F ield         | OpenFOAM: The Open Source CFD Toolbox
   \\    /   O peration     | Website:  https://openfoam.org
    \\  /    A nd           | Version:  7
     \\/     M anipulation  |
\*---------------------------------------------------------------------------*/
FoamFile
{
    version     2.0;
    format      ascii;
    class       volVectorField;
    location    "38";
    object      U;
}
// * * * * * * * * * * * * * * * * * * * * * * * * * * * * * * * * * * * * * //

dimensions      [0 1 -1 0 0 0 0];

internalField   nonuniform List<vector> 
591
(
(0.000812526 -3.9999e-05 1.21955e-18)
(0.000793737 -3.32897e-05 -6.62883e-19)
(0.000853112 -4.91078e-05 5.71189e-20)
(0.000842052 3.0393e-06 -1.49103e-19)
(0.000825808 1.57354e-05 2.24452e-19)
(0.000790546 -3.70062e-05 -1.38406e-19)
(0.000542426 -0.000363784 8.04317e-19)
(0.000797217 -1.24551e-06 2.07039e-18)
(0.00575418 0.00248923 9.88023e-19)
(0.000786378 -1.75262e-05 2.42923e-18)
(5.59486e-05 0.000176794 1.21882e-18)
(0.000902241 0.00133677 9.40885e-21)
(0.000793087 9.49838e-06 1.28926e-18)
(0.00158609 0.00237063 -7.87868e-19)
(0.000800034 1.11753e-05 -4.38199e-19)
(0.000108231 -0.000243041 2.5469e-22)
(0.000132488 0.000672057 7.05647e-19)
(0.000825918 3.20192e-05 -4.91743e-19)
(0.00195938 0.000375686 4.73181e-19)
(0.00134941 0.000269919 -2.4734e-19)
(0.000831508 5.20855e-06 3.72437e-19)
(0.00340402 0.00656841 -8.09334e-20)
(3.34192e-05 7.50219e-05 2.71153e-19)
(0.000827262 1.43058e-06 -4.51345e-19)
(1.64089e-05 -2.11242e-05 3.59201e-19)
(0.000757872 2.68143e-05 0)
(9.06035e-05 0.000479783 1.60073e-19)
(0.000520549 2.60522e-05 -1.78998e-19)
(0.000746802 5.2047e-05 1.14749e-18)
(0.000819882 2.12768e-05 5.81553e-19)
(6.5007e-05 -1.64024e-06 -3.44769e-24)
(4.28885e-05 -5.22662e-05 3.52479e-19)
(4.40686e-05 -3.88128e-06 -4.64325e-20)
(5.26243e-05 -1.06438e-05 0)
(6.12475e-05 -1.41108e-05 1.13218e-18)
(0.00116747 0.000128027 1.80051e-19)
(3.80047e-05 -6.77492e-06 4.47529e-20)
(0.000824891 1.55585e-05 3.88581e-23)
(3.24442e-05 4.92142e-05 2.66252e-19)
(4.60608e-05 -0.000137107 -8.55535e-19)
(0.000579572 -0.000195653 9.58892e-19)
(3.13085e-05 -8.80517e-06 4.55212e-20)
(0.000792158 -5.73237e-06 -1.5666e-18)
(0.0008237 2.49309e-05 -6.80904e-19)
(2.22711e-05 -1.05728e-05 0)
(6.11991e-05 9.98756e-06 8.52586e-20)
(0.00132791 0.00451719 8.93634e-19)
(8.32509e-05 2.13487e-05 8.64337e-20)
(0.000793841 2.25814e-05 0)
(0.000368736 -0.000161678 6.78407e-19)
(0.000372669 0.000279411 5.12304e-21)
(0.00038617 6.71302e-05 -1.00464e-18)
(0.00634837 0.0109415 -7.68739e-19)
(0.0062241 0.0107964 1.52987e-20)
(0.00561234 0.0103789 1.45659e-18)
(0.000809587 3.75695e-06 0)
(7.26403e-05 3.62794e-05 0)
(0.00032134 2.95866e-05 9.57669e-24)
(6.96808e-05 1.42402e-05 -3.46747e-19)
(0.00082411 -6.90059e-06 0)
(0.000615073 2.71629e-05 3.17852e-19)
(0.000818694 -2.30512e-06 2.21285e-18)
(0.000780674 8.3917e-06 -5.44477e-19)
(0.000792552 1.95286e-05 -3.1536e-19)
(0.00171889 0.000479513 5.43577e-19)
(0.000786562 1.3033e-06 -1.14788e-18)
(0.000817723 -1.83124e-07 -5.24607e-19)
(9.0696e-05 2.21186e-06 -1.73555e-19)
(0.000677359 0.00229006 0)
(0.000820025 2.12296e-05 0)
(0.000759202 1.63666e-05 -1.37907e-18)
(4.25209e-05 1.88707e-05 0)
(0.00028299 0.000276013 3.2709e-19)
(4.8196e-05 -1.95776e-05 0)
(4.84511e-05 -6.64847e-06 1.59606e-19)
(2.79924e-05 -5.35488e-05 -3.36964e-20)
(0.000772166 6.6911e-05 2.47323e-19)
(4.93596e-05 1.32424e-05 0)
(0.00078707 5.68653e-05 4.47203e-19)
(0.000754817 0.000297913 2.10901e-19)
(0.000963637 5.95473e-05 -3.98307e-20)
(4.76138e-05 2.6783e-05 -4.52239e-20)
(7.20356e-06 -3.70401e-05 0)
(0.000422942 0.000222935 1.70318e-19)
(2.52526e-06 3.08475e-05 0)
(0.000764955 2.60108e-05 -6.10216e-19)
(0.000568795 -0.000117325 0)
(7.25613e-05 1.52946e-06 -1.74623e-19)
(5.4144e-06 -4.99041e-05 0)
(0.00081348 0.000247692 -3.4156e-19)
(5.08758e-06 -2.27735e-05 0)
(0.000415534 0.000324658 -1.26479e-23)
(0.000514166 0.000116114 0)
(0.00079445 4.96661e-05 -2.79146e-24)
(3.07159e-06 2.04407e-05 -4.22066e-20)
(0.000438052 2.43755e-06 1.76508e-18)
(0.00102156 7.35022e-05 4.16408e-20)
(0.000914288 4.07377e-05 6.41043e-22)
(0.000727445 0.000655565 2.69709e-19)
(5.56103e-06 6.07988e-05 0)
(7.05595e-06 -8.92258e-05 -3.12638e-19)
(5.89659e-06 -0.000167751 -1.09917e-18)
(2.4026e-06 9.47598e-05 -5.96502e-19)
(0.000680241 -9.82615e-06 0)
(5.97055e-06 0.000121284 0)
(0.000793818 1.10028e-05 2.22502e-18)
(0.000768622 2.0963e-05 1.51956e-18)
(0.000404723 -4.57629e-05 0)
(4.97596e-05 0.000228885 -8.95697e-19)
(-1.49662e-06 0.000194703 4.96594e-19)
(7.44322e-05 0.000447697 6.25461e-19)
(0.00029738 0.000102769 -9.37798e-19)
(0.000804057 1.56778e-05 1.36318e-19)
(0.00026527 -1.50747e-05 5.31664e-19)
(3.53206e-06 4.24568e-05 0)
(3.18985e-05 0.000308767 -1.09431e-18)
(0.000314347 0.000328632 -1.61824e-19)
(6.7201e-06 -6.90052e-05 1.46714e-19)
(0.000661179 0.000801439 0)
(0.000360819 0.000392224 5.74844e-20)
(0.000805565 2.16891e-06 1.07182e-18)
(0.000789868 -5.31244e-06 -2.68674e-18)
(8.91632e-06 -0.000113078 0)
(0.000717637 -2.16297e-05 -1.12426e-19)
(0.000319087 -7.40973e-05 1.2443e-18)
(0.00267705 0.000792661 -3.36026e-19)
(1.10072e-06 0.000152768 -6.13343e-19)
(-4.28015e-06 0.00018726 1.61975e-18)
(0.000791302 1.88278e-05 -3.89535e-20)
(7.12694e-05 -9.41738e-06 -7.50798e-19)
(0.000790245 2.47725e-05 -3.90161e-19)
(0.000839391 2.70599e-05 -4.10201e-20)
(5.13116e-05 0.000358966 -5.9697e-19)
(0.000471495 8.00354e-05 -4.94331e-19)
(5.569e-05 -2.31597e-06 1.56285e-19)
(0.000819707 7.10377e-06 -1.078e-18)
(0.00160191 0.000217964 -1.13681e-18)
(2.20423e-06 7.50632e-05 4.9658e-19)
(0.00080174 8.11031e-06 -4.97505e-19)
(0.000888598 0.000539317 -7.85728e-20)
(0.000132385 0.000824973 0)
(0.000562263 6.72231e-05 0)
(0.00027174 6.28105e-05 -1.61102e-18)
(6.74854e-05 6.40192e-05 -1.37522e-18)
(3.44124e-05 2.35057e-05 0)
(0.00424584 0.00740345 -8.53583e-21)
(0.00422673 0.00737822 3.17327e-20)
(0.0044292 0.00758148 -5.14063e-21)
(0.00420731 0.00773619 0)
(0.00420008 0.00760111 5.77571e-19)
(0.00424524 0.00740503 -7.75377e-20)
(0.00421061 0.00804446 4.84618e-19)
(0.00428757 0.00741957 0)
(0.00420774 0.00853954 6.17014e-19)
(0.00432558 0.00744671 2.24154e-19)
(0.000808703 -2.90024e-06 -1.37108e-18)
(0.000754453 4.99796e-05 0)
(0.000217782 6.62585e-05 1.27788e-19)
(5.54607e-05 1.91421e-05 8.72572e-20)
(8.27792e-05 5.06177e-05 6.80578e-19)
(0.000111651 4.81367e-05 -3.41947e-19)
(0.000107199 1.20706e-05 0)
(5.39434e-05 6.99197e-06 8.19014e-20)
(0.000204656 0.000143155 0)
(0.000170394 5.45445e-05 -5.24673e-20)
(0.000337377 0.000229693 -5.0964e-21)
(5.99316e-05 4.7843e-05 -4.38017e-19)
(9.64092e-05 3.36359e-05 -8.53175e-20)
(9.47971e-05 6.82677e-05 1.31301e-21)
(0.000249032 0.000371429 -6.66669e-19)
(0.000121422 0.00104267 0)
(4.54886e-05 5.7286e-05 3.43344e-19)
(0.000204431 0.0017827 0)
(0.00020651 0.000259463 7.05196e-19)
(4.3827e-05 -5.18415e-06 1.11488e-19)
(0.00047039 0.00016908 -1.72437e-19)
(0.000747775 2.87798e-05 -1.92293e-18)
(4.81964e-05 -4.12713e-07 4.11251e-24)
(0.000154938 3.43935e-05 2.24769e-19)
(0.000240609 0.000104547 -9.00049e-20)
(0.000876812 0.000709597 3.35189e-19)
(0.000736208 0.00162072 -9.22574e-21)
(0.000380591 0.00142005 -9.42952e-21)
(0.00101582 0.000557524 0)
(0.00011149 -1.12276e-05 1.11968e-18)
(0.00012355 2.47394e-05 -4.43521e-20)
(0.000430692 -0.000269223 -1.13652e-18)
(0.000802848 3.00237e-05 0)
(0.000184885 2.02583e-05 3.63581e-19)
(0.000298336 0.00133299 0)
(0.00104393 0.00075739 -7.30757e-20)
(0.000821115 3.93494e-05 -1.86361e-19)
(8.7389e-05 -1.88222e-05 -3.00242e-19)
(0.000810742 0.000316627 -2.08222e-20)
(6.97438e-05 -2.19229e-05 -6.00019e-19)
(0.000226146 0.000182703 8.64539e-20)
(0.000226805 0.000312497 -3.45273e-19)
(0.000872307 0.000240105 0)
(0.000798745 4.67622e-05 0)
(0.000259641 0.000148956 1.76985e-19)
(0.000234892 1.64027e-05 2.0419e-24)
(0.000184665 0.0002125 0)
(0.000282928 0.000651641 -5.56092e-21)
(0.000334166 1.46225e-05 0)
(0.000347165 0.000600673 0)
(0.000113516 8.99609e-05 -1.3478e-21)
(0.000810181 9.52559e-06 -9.36821e-19)
(0.000812328 6.77701e-06 7.78456e-19)
(0.000133191 6.64224e-05 -1.49977e-19)
(0.000942175 0.000153068 8.51498e-20)
(0.000826014 4.75325e-05 3.32978e-19)
(0.000802102 1.80947e-05 -2.95235e-19)
(0.00099768 0.000404489 0)
(0.000428905 0.000127039 6.2495e-19)
(0.000884598 0.000316147 2.09313e-20)
(0.000559098 0.000163258 0)
(0.000272425 0.00044353 4.0994e-19)
(0.000259329 0.000224752 -8.44822e-20)
(0.00109258 0.000376599 -7.8252e-19)
(0.000603216 0.000112811 -1.79447e-19)
(0.000793647 7.62592e-05 -7.46126e-21)
(0.000826418 2.76742e-05 9.35611e-20)
(9.96207e-05 -9.02867e-05 -1.98301e-18)
(0.000728022 0.000381387 2.19407e-19)
(0.000647955 6.33586e-05 2.30778e-20)
(0.000693328 0.000276267 1.57101e-23)
(0.000716872 0.00045288 -4.09858e-19)
(0.000834351 3.93167e-05 9.07172e-20)
(7.57215e-05 8.72879e-05 0)
(0.000643472 0.000416252 -4.66045e-20)
(0.000185025 0.000106197 0)
(0.000369797 0.00050427 -2.65024e-19)
(0.000309353 0.000176726 0)
(0.000662314 0.000202562 3.5553e-19)
(0.000635406 0.000264575 -4.37614e-20)
(8.30747e-05 0.000108938 6.19663e-19)
(0.000871663 0.000100597 -1.63473e-18)
(6.3045e-05 2.59312e-05 2.57405e-19)
(0.000870781 5.28173e-05 -1.65808e-18)
(0.000822975 7.64573e-05 1.61777e-19)
(0.000798777 2.07662e-05 1.92612e-18)
(0.000795717 1.91615e-05 -1.31462e-19)
(0.00071583 7.42227e-05 0)
(0.000807726 3.24905e-05 8.81477e-19)
(0.000937036 0.000231417 -4.27477e-19)
(0.0007538 8.22867e-05 -4.83911e-19)
(0.000767854 0.000226675 -8.81991e-20)
(0.000233567 -0.000126394 -2.08105e-18)
(0.000724308 8.7998e-05 8.87027e-19)
(0.000634096 0.00059614 0)
(0.000119647 -0.000104398 0)
(0.00119292 0.000468494 4.97568e-19)
(0.000731764 -8.36607e-05 -3.23466e-18)
(0.00131236 0.000429317 5.76023e-19)
(0.00124419 0.000715858 -6.39805e-20)
(0.000793406 4.32536e-05 -2.12198e-19)
(0.000821823 7.10689e-05 -1.42305e-18)
(0.00081111 1.71311e-05 1.56562e-18)
(0.000808875 2.74111e-05 9.68208e-20)
(0.000663249 0.000346311 -4.40757e-20)
(0.000105246 0.000134464 7.18732e-24)
(0.00072574 -5.78588e-05 2.6533e-19)
(0.00023908 -0.000217147 -7.35945e-19)
(0.000607049 0.000190229 0)
(0.000686038 2.89653e-05 9.91286e-20)
(0.000663722 9.88323e-06 -3.81148e-19)
(0.000380476 0.000177905 3.9366e-20)
(0.000788616 0.000498758 -1.65601e-19)
(0.000153528 8.5274e-05 2.5737e-25)
(0.000803583 0.000398324 0)
(0.000963891 0.00032195 4.16129e-20)
(0.00073384 -9.20055e-05 -6.16827e-19)
(0.000340422 0.000114228 4.98162e-19)
(0.000894961 0.000419752 0)
(5.39356e-05 3.53682e-05 1.33822e-19)
(0.000471065 0.000272578 2.14117e-19)
(0.000457998 -0.000110779 -7.09814e-19)
(0.000170037 -0.000139511 -1.05991e-18)
(0.000812505 1.77187e-05 -4.76456e-19)
(0.00079686 -0.000111318 -1.93709e-19)
(0.000562941 0.000722811 -1.17526e-18)
(0.000832662 4.57754e-05 -6.70143e-20)
(0.000716416 -3.23552e-05 1.26103e-18)
(0.000675221 9.88079e-05 2.27982e-20)
(0.000516132 0.00021662 -1.65813e-19)
(3.92487e-05 -2.4504e-05 -8.76554e-20)
(0.000187466 -2.90864e-05 2.40809e-18)
(2.67964e-05 9.47584e-07 -1.94975e-19)
(0.000798247 9.76112e-05 3.61739e-19)
(0.000640296 0.000139258 0)
(0.000199874 -6.03568e-05 -1.04892e-18)
(0.000129453 -5.86844e-06 3.1316e-19)
(0.000126142 -3.20171e-05 2.32222e-24)
(0.000783986 0.000112715 -3.18843e-19)
(0.000158953 -5.011e-06 0)
(0.000572425 0.000243867 0)
(0.000111189 0.000337574 -3.63124e-19)
(0.000847321 9.88269e-05 2.10644e-18)
(2.18321e-05 1.60772e-06 0)
(0.00085749 4.51997e-05 0)
(5.16776e-05 -2.66513e-05 0)
(0.000811086 3.23558e-05 -4.46996e-21)
(0.000801328 -6.17894e-05 0)
(0.00425722 0.00740546 8.07813e-20)
(0.00436233 0.00748383 1.43505e-19)
(0.000841415 4.44019e-06 0)
(0.000763408 -5.68948e-05 8.13406e-19)
(0.000153835 0.000133728 1.49324e-19)
(0.000843259 7.53246e-05 7.98724e-19)
(0.00013355 0.000110305 2.34583e-20)
(0.000760654 -4.14988e-05 6.26638e-19)
(3.92647e-05 1.16962e-05 0)
(3.49448e-05 -1.62533e-05 -4.48854e-20)
(0.000876226 5.19783e-05 -4.85845e-19)
(4.29682e-05 -3.52859e-05 -6.70286e-19)
(0.000741816 0.000118992 -4.2361e-20)
(0.000167879 0.000171065 -1.88244e-19)
(0.00081011 1.68323e-05 0)
(0.0046816 0.00815121 8.79285e-22)
(0.000167104 0.000784079 3.33916e-19)
(0.000132914 -4.94362e-05 -9.15271e-19)
(7.16566e-05 -3.51875e-05 -1.16968e-18)
(0.000728536 1.74785e-05 1.89943e-20)
(0.000573081 0.000413567 0)
(0.000405582 0.000436715 -2.56522e-19)
(0.000104519 -5.37591e-05 1.18459e-18)
(0.00068623 2.53431e-06 7.66244e-20)
(4.72392e-05 2.54462e-06 4.07407e-19)
(0.000661942 -5.96581e-05 1.17272e-18)
(0.000806839 2.91605e-05 -5.96524e-19)
(8.31973e-05 -5.52573e-05 1.71047e-18)
(0.00083833 -4.33938e-06 -4.12657e-24)
(0.000704561 9.35308e-06 -3.76862e-20)
(0.000856133 6.0128e-05 0)
(0.000816743 3.28601e-05 0)
(0.00592421 0.00723937 2.59048e-19)
(2.8078e-05 -9.98837e-08 -1.19658e-19)
(0.000162946 -8.31169e-05 7.73511e-19)
(0.000710334 0.000121616 -6.97061e-19)
(3.20428e-05 -6.22361e-07 2.01622e-19)
(0.000582361 -2.63878e-05 -7.2447e-19)
(0.000726355 2.86941e-05 1.55947e-18)
(0.000690382 0.000156036 -3.55736e-19)
(0.000805434 -1.67945e-05 3.54906e-19)
(9.14764e-05 -3.00446e-05 1.11697e-18)
(0.000789745 9.15463e-06 -3.197e-19)
(0.000854893 4.76212e-05 0)
(0.000529647 0.00030285 4.2135e-20)
(0.000841521 4.56686e-05 -9.36184e-19)
(2.81355e-05 5.4111e-07 9.11691e-19)
(0.000834945 4.27209e-05 9.54503e-19)
(0.000843058 -1.22473e-05 -9.59766e-19)
(0.000716485 4.83206e-06 -5.697e-19)
(0.000491855 -5.51777e-05 -5.26107e-19)
(0.00432861 0.00745044 2.47362e-19)
(0.00422624 0.00753119 -2.47178e-19)
(0.00422258 0.00758823 2.67507e-19)
(0.00425542 0.00741283 1.98017e-19)
(0.000844937 -8.52108e-06 1.44155e-19)
(0.00447555 0.00751005 0)
(0.00440301 0.00751585 -3.86647e-19)
(4.17855e-05 -2.46358e-07 -9.98523e-19)
(0.00417128 0.00747206 -6.34063e-20)
(0.00414683 0.00743447 -2.21766e-19)
(0.00602884 0.0106049 0)
(0.00653794 0.0111886 3.71967e-20)
(0.00600853 0.0105748 0)
(0.00655421 0.0112091 1.30069e-19)
(0.00599565 0.0105988 2.69875e-19)
(0.0065904 0.0112256 1.24689e-20)
(0.005934 0.0106122 -7.7718e-19)
(0.00662166 0.0111449 8.23399e-21)
(0.00390187 0.00920385 -1.91035e-19)
(0.00418865 0.00749117 3.86476e-21)
(0.00424018 0.00755466 7.93827e-20)
(0.00415186 0.00743649 4.12506e-20)
(0.000854817 0.000181777 4.47137e-20)
(1.58288e-05 2.23193e-06 0)
(0.000665082 -0.000146627 0)
(0.000707449 3.75051e-05 0)
(0.00243822 0.00111567 4.20909e-21)
(0.00074116 -2.81914e-05 1.72759e-19)
(4.57673e-05 7.44428e-06 4.54435e-20)
(1.77999e-05 -3.24278e-05 1.65386e-18)
(0.000838949 2.12878e-05 0)
(3.16461e-05 1.50712e-05 -1.91887e-19)
(0.000143773 0.000230127 0)
(2.83893e-05 -1.28083e-06 0)
(2.35155e-05 -1.89935e-06 0)
(0.000801528 0.000125867 1.13554e-20)
(0.00081063 -6.60304e-06 1.77717e-19)
(3.35673e-05 0.000302566 -1.70897e-23)
(0.000160644 0.000277722 -1.84334e-18)
(0.000593098 0.000336187 -8.57673e-20)
(0.000890756 0.000127103 6.02144e-19)
(0.00070357 -0.000351105 6.72099e-19)
(0.000338958 0.00111334 0)
(0.000455605 0.000565136 2.71697e-18)
(9.49049e-05 0.000153132 -1.80361e-18)
(3.40498e-05 4.19569e-07 0)
(0.000818488 -3.67139e-05 3.6094e-20)
(1.97318e-05 4.1864e-05 1.64585e-18)
(0.000898481 2.6612e-05 2.71509e-19)
(3.58824e-05 -0.000127371 3.78401e-18)
(0.000926762 3.99491e-05 -2.69309e-19)
(0.00139186 0.000138925 7.4802e-19)
(4.29347e-05 -1.21868e-05 8.26412e-20)
(4.33138e-05 6.58676e-06 -8.59632e-19)
(4.90551e-05 0.000152903 0)
(0.000893228 7.94629e-05 5.97526e-19)
(0.000486997 0.000369936 2.37323e-19)
(0.00075233 1.75208e-05 -3.88959e-20)
(0.000758237 -1.30808e-05 2.56831e-19)
(0.000721908 -0.000220768 0)
(0.00632077 0.0108967 -1.68125e-19)
(0.00637859 0.0109738 4.06008e-19)
(0.00615965 0.0107294 -6.18761e-19)
(0.0064995 0.0111322 -8.10906e-20)
(3.93412e-05 0.000123997 8.01189e-19)
(0.000896886 5.7545e-05 1.53555e-22)
(0.00641114 0.0110054 -3.867e-19)
(0.00628227 0.010845 5.48684e-19)
(0.00607975 0.0106731 -4.15939e-19)
(0.0065217 0.011165 -6.81609e-20)
(8.69885e-05 0.00054348 -2.02019e-20)
(0.000144931 -0.000195339 -7.9318e-19)
(0.000744445 -1.21015e-05 -7.60034e-19)
(0.000713268 0.000220686 0)
(0.000791892 2.04707e-06 0)
(0.000184148 0.000393584 3.36552e-19)
(0.000595837 0.00054203 -5.41896e-19)
(1.71678e-05 -2.65009e-06 1.7855e-19)
(0.000207632 0.00046446 -7.38948e-19)
(0.00100206 0.000974133 -1.128e-19)
(0.000729343 0.000169967 0)
(0.000776878 0.000173462 1.31137e-19)
(0.00636693 0.00587452 1.13032e-18)
(0.000727237 0.00113866 8.27858e-20)
(4.32469e-05 4.28212e-05 -7.45325e-20)
(0.000815754 3.67298e-05 0)
(0.000874457 2.36737e-05 -3.57251e-20)
(4.15877e-05 5.30282e-06 -1.96828e-19)
(3.57908e-05 6.74839e-06 1.93131e-19)
(0.000823892 2.24812e-05 5.3633e-19)
(0.000960981 0.000104157 6.59111e-19)
(0.00064647 3.77542e-05 0)
(0.000220011 -0.000312677 -3.9794e-19)
(0.000898675 0.000147663 3.89973e-19)
(3.09914e-05 -7.80557e-05 2.03294e-19)
(0.00144033 0.000384839 -2.5858e-18)
(0.000677234 -1.56546e-06 0)
(0.000780058 0.000143225 3.75773e-19)
(9.15312e-05 0.000405983 0)
(0.00118154 0.00816867 4.62152e-19)
(0.000471058 0.000506041 -1.22502e-18)
(0.000542826 0.000978249 -1.83888e-19)
(0.000867417 2.35689e-05 -1.45899e-19)
(1.72401e-05 2.94815e-05 0)
(0.000919826 7.42939e-05 6.12297e-19)
(0.00410818 0.00739817 8.14979e-20)
(0.00417301 0.00747644 4.73682e-20)
(0.00449903 0.00751342 4.54351e-19)
(0.0044444 0.00754031 -3.28346e-19)
(0.00647452 0.011108 8.11741e-20)
(0.00391135 0.00714358 -9.47319e-22)
(0.00551054 0.00779497 -5.6495e-19)
(0.00409405 0.00736946 5.22754e-21)
(0.00518933 0.00785546 5.11871e-19)
(0.00407606 0.00733976 -4.88883e-20)
(0.0049537 0.00771354 0)
(0.00408394 0.00736859 -8.57155e-20)
(0.00474186 0.0075862 4.92797e-19)
(0.00410036 0.00737886 8.7592e-20)
(0.00457418 0.00752476 0)
(0.00428151 0.00741848 1.3991e-19)
(0.00424069 0.00759999 5.81853e-19)
(0.00446717 0.00752523 -5.54185e-19)
(0.00438705 0.00750335 3.71523e-19)
(0.00423082 0.00752731 2.79089e-19)
(0.0064299 0.0110413 -4.95031e-21)
(0.00412001 0.0074041 3.11932e-20)
(0.00645698 0.0110706 0)
(2.9021e-05 8.27953e-06 -1.90022e-19)
(0.00198597 0.00653708 2.28582e-19)
(0.000844353 -1.80579e-05 1.09945e-19)
(0.000856975 1.71882e-05 0)
(3.187e-06 3.1368e-06 -3.99454e-19)
(5.22658e-05 -0.000189997 6.92252e-19)
(2.47113e-05 6.32395e-05 2.09072e-18)
(0.000812217 0.000182599 -9.01408e-20)
(0.000789104 1.18767e-05 6.99183e-19)
(3.55727e-06 -3.53167e-06 3.10262e-19)
(2.56259e-05 -4.18066e-05 -1.84709e-18)
(0.000751503 2.68639e-05 1.63321e-19)
(0.000853393 0.000128417 -3.07537e-20)
(0.000787232 -8.77519e-06 1.46868e-19)
(0.000402232 0.000664519 0)
(0.000103615 -0.000152966 1.15194e-18)
(0.000846888 1.6466e-05 1.52411e-19)
(2.27893e-05 2.77125e-05 0)
(0.000106036 0.000567031 -6.31669e-19)
(0.000605143 0.000602304 1.31889e-18)
(0.000336706 0.000731666 0)
(0.000787478 -1.68984e-05 0)
(0.000788933 1.52138e-05 1.16904e-18)
(2.22656e-05 5.36548e-05 -3.51788e-18)
(2.05356e-05 9.89852e-06 3.73942e-19)
(0.000114368 0.000154213 0)
(5.89793e-05 -4.40279e-05 0)
(6.80695e-05 0.000120333 2.01167e-19)
(0.000915189 0.00017501 3.50753e-19)
(0.000797055 8.69279e-06 -1.37896e-18)
(2.58525e-05 3.81501e-05 0)
(0.000547233 3.99159e-05 -6.02868e-20)
(0.000795813 3.7604e-05 -1.54738e-19)
(0.000826969 2.05639e-05 1.04071e-18)
(0.00025624 0.000546209 6.32707e-19)
(0.000846747 0.000150205 0)
(2.82492e-05 -2.99106e-05 5.39142e-19)
(4.17797e-06 -1.22034e-05 -3.20248e-19)
(0.00105825 2.01564e-05 0)
(0.00102782 0.00222901 0)
(0.00101423 -3.34828e-05 0)
(0.000985966 0.000197004 4.27576e-19)
(0.000814691 -2.14989e-05 -2.81867e-19)
(0.000906402 0.000118649 -6.85413e-19)
(0.000790499 5.48498e-06 0)
(4.40193e-05 7.62677e-05 -1.71711e-19)
(0.000173247 0.000330933 1.08198e-18)
(0.000791605 3.06153e-05 1.00161e-23)
(0.00106995 0.00019587 -6.69008e-19)
(0.00108561 0.000118374 0)
(3.49113e-06 1.0904e-05 2.51245e-19)
(2.44425e-05 -1.97818e-05 -1.94482e-19)
(0.000642408 3.15492e-05 6.8902e-21)
(3.82389e-05 -0.000104436 0)
(0.00103346 0.000247996 9.5068e-19)
(0.00502766 0.00974678 -2.83565e-19)
(0.00311806 0.00962255 1.27336e-18)
(7.59673e-05 -0.000118887 -1.91509e-19)
(7.84078e-05 -8.17396e-05 1.86122e-18)
(0.00118996 0.000226679 1.67012e-19)
(0.00133406 0.00106848 2.34267e-19)
(0.000821975 4.15568e-06 -7.34789e-19)
(0.000214909 0.000945342 -2.39082e-19)
(0.000790656 0.000893806 -2.18746e-19)
(0.000792725 -6.18328e-06 0)
(9.59075e-05 0.000669227 0)
(9.77649e-05 0.000287072 -4.60733e-23)
(0.000738809 -2.69769e-05 -1.73673e-23)
(0.000809483 3.76644e-05 1.5027e-19)
(0.00261836 0.00205429 -1.2322e-18)
(0.0017556 0.00924243 -1.17277e-19)
(0.000826681 3.05633e-05 4.83482e-19)
(0.00634698 0.00403781 -1.75649e-19)
(0.00671924 0.0115534 -1.37282e-20)
(0.00472992 0.00783919 4.95036e-21)
(0.00079955 2.58977e-05 -2.17551e-18)
(0.000824236 2.98733e-05 -3.2179e-24)
(1.41591e-05 -1.1104e-05 -3.48324e-19)
(4.82245e-05 9.79626e-05 -3.49575e-19)
(7.73678e-05 0.000281718 8.7634e-19)
(1.46791e-05 1.96914e-05 4.90831e-19)
(9.04784e-05 0.000239574 3.70063e-19)
(0.000820485 3.47351e-05 0)
(0.00534991 0.00949451 1.93916e-20)
(0.00154138 0.000608811 -2.61937e-20)
(0.000821092 2.44597e-05 3.55808e-19)
(5.78864e-05 -9.3288e-05 0)
(0.00184151 0.000753686 5.46336e-19)
(1.29095e-05 1.04033e-05 -2.70389e-19)
(3.83209e-05 3.30946e-05 9.72665e-20)
(0.00131369 0.00137493 6.3699e-19)
(0.000745944 3.64786e-05 1.83292e-19)
(1.06105e-05 -3.01936e-06 -1.70354e-19)
(0.00205411 0.00154531 -1.05722e-18)
(0.000127608 0.000187297 -8.19399e-19)
(0.00392182 0.00848032 -1.09136e-18)
(9.73646e-06 2.6733e-06 8.8219e-20)
(0.000190888 -0.000263779 -1.2492e-18)
(6.38834e-05 -6.06222e-05 4.06011e-20)
(0.00151952 0.000966293 0)
(0.00102342 0.00014231 -4.2037e-22)
(0.00044897 0.000854636 -4.0251e-20)
(0.000801387 2.11703e-05 -2.31601e-19)
(8.70926e-05 0.000193776 7.36469e-19)
(4.85608e-05 -7.05343e-05 4.0439e-19)
(2.15098e-05 1.84006e-05 -9.47924e-20)
(3.70952e-05 0.000102524 -3.20559e-19)
(0.000197985 -0.00034264 -5.40678e-19)
(0.00323989 0.00343816 2.90176e-21)
)
;

boundaryField
{
    back
    {
        type            empty;
    }
    ingreso
    {
        type            fixedValue;
        value           uniform (0.0008 0 0);
    }
    salida
    {
        type            zeroGradient;
    }
    front
    {
        type            empty;
    }
    defaultFaces
    {
        type            noSlip;
    }
}


// ************************************************************************* //
