/*--------------------------------*- C++ -*----------------------------------*\
  =========                 |
  \\      /  F ield         | OpenFOAM: The Open Source CFD Toolbox
   \\    /   O peration     | Website:  https://openfoam.org
    \\  /    A nd           | Version:  7
     \\/     M anipulation  |
\*---------------------------------------------------------------------------*/
FoamFile
{
    version     2.0;
    format      ascii;
    class       surfaceScalarField;
    location    "68";
    object      phi;
}
// * * * * * * * * * * * * * * * * * * * * * * * * * * * * * * * * * * * * * //

dimensions      [0 3 -1 0 0 0 0];

internalField   nonuniform List<scalar> 
1111
(
6.62231e-09
1.31516e-08
-1.59309e-08
-3.84301e-09
6.65521e-09
-1.18268e-08
1.17939e-08
-1.4744e-08
5.33088e-09
9.14526e-09
2.67897e-10
6.06634e-10
-6.97919e-10
-1.42775e-08
1.43688e-08
-1.42068e-08
1.39472e-08
8.66313e-10
-1.65355e-09
1.49006e-08
2.18156e-09
-3.54253e-09
9.70721e-09
-1.03144e-08
4.14971e-09
-6.70569e-09
-1.26186e-08
1.25935e-08
6.73074e-09
-5.04469e-08
-2.59408e-08
7.63877e-08
-8.13305e-09
7.63457e-09
7.15369e-09
3.48034e-09
3.49354e-10
-3.5614e-09
-2.68291e-10
1.5706e-08
-1.60459e-08
-2.30833e-08
2.34233e-08
-9.64772e-09
-7.89937e-09
8.78908e-09
8.75802e-09
-3.54183e-08
1.76313e-08
-3.2309e-08
5.0096e-08
9.52016e-09
-1.95863e-09
-1.42672e-08
-1.28684e-09
2.09487e-09
-3.53089e-09
2.72286e-09
-3.81498e-09
1.33321e-08
1.95042e-09
-1.14675e-08
8.83231e-09
-2.50612e-09
-1.50375e-08
8.71136e-09
3.7614e-08
-3.03885e-08
-7.22553e-09
-1.94274e-08
3.29857e-10
1.7309e-08
1.78845e-09
-9.02655e-10
4.14914e-09
-1.78771e-08
1.46306e-08
-6.12212e-08
-3.96284e-09
6.51841e-08
1.50242e-10
-1.25231e-09
-3.51939e-10
1.45401e-09
-1.52613e-09
-1.35834e-08
-1.43345e-10
-2.93424e-10
2.46674e-10
1.90096e-10
-1.02168e-08
-8.29674e-09
1.27371e-08
5.77642e-09
7.02567e-10
-2.13296e-09
-8.39738e-09
9.82777e-09
8.22487e-09
8.82244e-10
-9.19253e-09
8.541e-11
-2.86181e-09
-7.87988e-09
1.09552e-08
-2.13517e-10
1.13903e-08
-7.58344e-10
-1.79961e-09
-9.33238e-10
9.20178e-10
4.606e-11
-3.30002e-11
-2.1131e-10
8.07388e-10
3.59414e-10
-9.55492e-10
-5.39005e-10
-3.9483e-11
5.74455e-10
4.03334e-12
-4.4834e-12
-9.30375e-10
1.04969e-10
8.29889e-10
-7.34667e-11
-8.64255e-10
8.5389e-10
-1.84574e-08
-1.82385e-09
-4.52378e-10
4.90687e-11
-1.35696e-10
1.34061e-08
-1.32501e-08
3.99309e-09
-3.98104e-10
6.04893e-10
3.72339e-10
-5.79129e-10
-2.43035e-10
-2.00692e-09
1.57428e-09
6.75674e-10
-2.12002e-09
1.01433e-08
-1.15658e-08
-3.33025e-10
-1.79803e-10
6.04502e-11
-8.79337e-09
1.02473e-08
-9.58702e-09
1.21196e-08
-1.712e-08
4.8121e-09
1.88354e-10
7.37494e-11
-1.84613e-10
-2.22162e-10
2.21827e-10
8.44385e-10
-1.46034e-10
-5.95274e-08
7.4245e-08
-1.47176e-08
1.09413e-09
-3.07012e-10
-1.24532e-09
4.58201e-10
1.13656e-09
1.032e-08
-1.37274e-08
2.27083e-09
-1.34168e-09
7.34814e-09
-8.77621e-09
2.76975e-09
-6.5845e-09
5.72079e-09
5.5677e-09
-4.70399e-09
-7.35392e-09
-1.99338e-09
1.94945e-09
7.39785e-09
-1.81964e-10
-9.09258e-08
9.13111e-08
-2.0335e-10
-2.56823e-10
-8.97629e-08
9.01713e-08
-1.51658e-10
8.30895e-08
-1.49543e-09
1.11657e-10
-8.17058e-08
-3.05817e-09
-2.95606e-10
7.36168e-10
8.79072e-10
-5.21107e-10
3.97957e-09
-1.42921e-09
3.35436e-09
-5.90471e-09
-1.03617e-09
9.5098e-10
-1.49695e-08
6.61259e-09
9.50781e-09
1.00698e-09
-1.02419e-08
-2.72872e-10
-6.21165e-09
1.31714e-08
1.25639e-09
-8.21616e-09
1.43442e-08
-4.33446e-09
3.52703e-09
-1.35368e-08
1.54191e-08
1.71012e-09
-1.70042e-09
-2.67559e-10
-2.00373e-08
-7.35696e-09
2.76618e-08
1.4048e-08
-8.49714e-09
-2.0496e-09
7.81021e-09
-1.19723e-08
-5.69452e-11
1.53713e-10
-1.34209e-09
-3.63196e-08
-2.32078e-08
8.17131e-09
1.68219e-10
3.78006e-09
-7.02417e-09
1.0897e-08
6.37449e-09
-6.42667e-10
3.55401e-10
5.17985e-10
-2.30719e-10
5.85077e-09
-4.70346e-09
3.60566e-09
-4.75297e-09
-5.40078e-10
-6.7254e-10
2.82243e-10
7.31481e-10
-6.65995e-10
-7.11313e-11
-9.83522e-10
8.43343e-10
-1.78828e-08
2.46993e-09
1.50918e-09
1.39037e-08
2.58203e-10
-7.53775e-10
-1.47096e-10
-4.00584e-09
-1.4966e-08
1.08905e-09
5.63979e-09
1.19402e-08
-5.22706e-09
-1.2353e-08
1.6459e-08
6.25733e-10
-1.59274e-08
-1.15733e-09
-7.25982e-10
4.99885e-10
5.81497e-10
-5.93045e-10
3.0844e-10
2.84605e-10
-7.27033e-09
-3.67227e-09
4.3581e-09
-2.85893e-10
4.27181e-10
-1.41288e-10
1.27289e-09
-1.54956e-08
-8.47089e-10
9.41486e-09
-1.06878e-08
-1.04705e-09
-6.64177e-10
1.27696e-08
4.38908e-09
-4.13266e-09
-1.3026e-08
1.65095e-10
7.05716e-09
-7.79323e-09
6.45685e-09
-1.79099e-09
-8.7325e-09
8.00584e-09
2.51765e-09
-1.81684e-09
6.36813e-10
-1.3786e-08
-1.66009e-10
-1.19884e-10
-9.0779e-11
9.58263e-10
-8.22141e-09
7.3641e-10
1.73189e-08
-1.59628e-09
-1.28819e-08
1.41894e-08
-1.30754e-09
1.21205e-08
1.40336e-08
-1.55584e-08
-1.05957e-08
-6.47391e-10
1.1468e-09
-4.99407e-10
7.4846e-10
-8.53242e-10
1.04781e-10
1.09628e-09
-1.29025e-09
1.93971e-10
1.57846e-09
-1.29704e-09
-2.81416e-10
-1.09067e-08
6.30384e-10
1.02763e-08
2.25367e-09
-6.7521e-10
8.92933e-09
-1.53134e-08
7.09281e-09
-8.52528e-09
5.55305e-11
3.82215e-09
-3.97349e-10
-2.60302e-09
2.65855e-09
-6.85736e-09
8.18368e-09
-1.32633e-09
-7.00827e-10
4.18187e-09
4.98528e-10
1.72676e-08
-1.44997e-08
-1.63137e-09
-5.76594e-09
5.29015e-09
-9.53423e-10
-2.20209e-10
6.15479e-09
-6.17535e-09
2.05636e-11
6.98016e-09
4.43831e-09
8.42835e-11
-1.60173e-08
1.04667e-08
1.76711e-08
5.72039e-09
8.31694e-09
8.2424e-09
-6.83751e-09
1.15961e-09
-1.20663e-08
8.05274e-10
7.76931e-10
-1.28329e-08
3.09136e-09
-4.32804e-10
1.21455e-08
-1.15197e-08
-1.9496e-10
-9.25557e-10
-1.37854e-08
7.39215e-09
8.22518e-10
-2.56299e-11
-8.915e-09
5.11406e-09
-3.0656e-08
-1.25035e-08
-2.68061e-09
1.39876e-09
1.39892e-08
1.09531e-08
-1.06842e-08
-1.42582e-08
1.55982e-08
-3.11177e-09
-1.24865e-08
1.65755e-09
3.91605e-09
-1.26252e-09
-9.37807e-10
-9.4156e-10
1.25216e-09
6.27207e-10
-2.64491e-10
3.8871e-10
3.93767e-10
6.21363e-08
-6.21609e-08
2.45996e-11
6.2058e-08
-6.23615e-08
3.03497e-10
8.36801e-10
6.47475e-08
-6.55746e-08
8.27144e-10
6.41391e-08
6.08384e-10
-2.25225e-10
-6.65205e-08
9.45863e-10
-6.20438e-08
6.19104e-08
1.33392e-10
1.31647e-09
-6.78369e-08
-6.22024e-08
1.58637e-10
1.23453e-08
-9.13947e-10
1.52204e-09
-3.70749e-09
3.09939e-09
3.76606e-10
-1.23823e-09
1.03659e-09
-6.98773e-10
1.44006e-09
-1.69655e-09
9.55265e-10
1.4788e-09
-1.61752e-09
2.92431e-10
-7.72904e-11
-3.37846e-09
2.92651e-09
-2.16814e-09
2.6201e-09
-6.57849e-10
-2.81087e-09
2.55478e-09
-3.71276e-09
-5.69469e-09
6.19611e-10
-6.82098e-10
1.32791e-09
1.14873e-09
-6.5565e-09
7.98887e-09
3.00594e-09
1.99795e-08
-4.38131e-09
-7.66182e-10
2.96014e-10
1.08978e-09
-1.00477e-08
-2.62719e-08
5.40693e-09
-4.38701e-09
-3.13553e-09
2.11561e-09
1.21443e-10
1.95553e-11
4.33457e-10
-2.69131e-09
3.42682e-09
8.79354e-09
8.27293e-10
-4.04708e-10
2.16523e-09
-2.41837e-09
2.05963e-09
1.4772e-08
1.32509e-08
-2.69818e-08
3.26401e-08
6.29239e-09
-2.28384e-08
-1.04358e-08
1.83219e-08
-1.78486e-08
1.04799e-08
-1.73944e-10
-1.1127e-10
-1.3323e-09
-1.80882e-09
-2.89686e-09
3.82786e-09
1.49125e-08
-5.95954e-10
-1.36798e-08
-3.20144e-10
-2.59479e-09
1.04064e-10
1.54609e-08
1.7633e-08
1.36815e-08
6.93677e-10
-1.60084e-09
-1.27744e-08
-1.71099e-09
6.01358e-09
1.23958e-08
-6.369e-10
-1.15291e-09
-3.56216e-09
2.74645e-09
3.74221e-09
2.45609e-09
1.43094e-08
4.17013e-09
-1.40904e-08
1.77746e-08
-1.77304e-09
2.67934e-09
-3.52265e-09
1.88209e-09
-4.75132e-09
1.29388e-08
-1.20024e-08
-1.39883e-08
4.50864e-10
8.78609e-09
-1.86072e-09
1.55851e-09
1.63012e-09
-8.66912e-09
6.74806e-10
-4.5092e-09
-6.04835e-09
1.22212e-08
-1.4842e-08
1.25977e-09
1.66679e-09
-2.21715e-09
1.66314e-08
-1.60811e-08
-1.00506e-09
1.40906e-08
2.95206e-09
-4.27574e-09
-1.39897e-08
7.42258e-09
-1.71991e-08
-8.07216e-09
6.65029e-09
5.86387e-09
1.44591e-08
-9.78793e-09
3.09199e-09
9.21359e-09
9.87784e-09
3.83141e-09
-4.14629e-09
2.15774e-08
-1.89875e-08
4.83267e-09
-1.03247e-08
2.19435e-09
5.5633e-09
1.37205e-08
-1.6078e-10
1.26978e-08
-1.35421e-08
-1.82265e-09
2.14915e-09
-1.19921e-09
8.72698e-10
1.09176e-08
-6.3873e-09
7.40999e-09
-1.07258e-08
1.40804e-09
-4.75073e-09
1.13657e-08
-1.18421e-08
-7.5264e-09
9.09858e-09
9.34537e-09
1.27914e-08
8.07902e-10
-1.37601e-08
1.58722e-09
8.13679e-10
-1.10074e-08
-6.7157e-09
1.01967e-08
-1.58947e-09
2.52072e-09
-8.92405e-09
4.81362e-09
-5.17971e-09
1.14307e-08
-3.49239e-09
-1.16238e-08
3.68544e-09
-4.50049e-09
1.11805e-08
1.98687e-09
1.15886e-09
-5.04196e-09
-1.76148e-08
1.03994e-08
1.22574e-08
8.06479e-10
-1.08879e-08
-9.87709e-09
1.5723e-08
1.24308e-08
2.81489e-09
-9.6824e-09
-1.32654e-08
-2.86751e-10
-1.26993e-08
1.90692e-10
-7.36653e-10
1.15012e-08
1.24778e-08
-8.20615e-09
1.64591e-08
-1.58453e-08
3.55631e-09
-4.48225e-10
1.72244e-09
1.26295e-08
-3.88748e-09
-1.25982e-08
-5.12234e-09
1.30944e-09
4.58983e-09
1.20877e-08
-7.29869e-09
8.38848e-10
-1.45577e-09
1.1382e-09
-1.50508e-09
5.91523e-09
2.6142e-08
-2.80056e-10
-1.0838e-08
1.11181e-08
2.84394e-08
-2.21943e-08
2.19839e-08
1.96191e-08
-1.2674e-08
-2.65017e-09
1.49678e-08
2.22038e-10
-1.21328e-08
-3.44527e-10
-6.02899e-09
-1.91125e-09
2.29624e-09
1.60188e-09
-2.0587e-10
-1.09565e-08
1.12696e-08
-1.07215e-10
3.06015e-09
-5.41273e-09
-1.08438e-08
1.04434e-08
-8.48154e-10
-1.06143e-08
-1.09454e-10
-1.09806e-08
-2.71667e-09
-1.19345e-08
2.22508e-09
7.87128e-09
5.1239e-09
-1.23467e-10
-1.17069e-08
1.16245e-08
6.24267e-10
-8.65831e-09
5.22319e-09
-1.27886e-09
2.48991e-09
-2.63624e-09
-1.30225e-08
-1.29244e-08
1.25208e-08
-1.0237e-08
-1.5787e-08
1.00067e-08
9.18169e-09
8.65935e-10
2.60159e-09
-1.34396e-08
1.12153e-08
1.69394e-09
3.98209e-09
3.35367e-10
-5.63186e-10
-3.12259e-10
-4.08129e-09
2.62497e-09
-1.13847e-09
2.53983e-10
-2.97621e-10
4.36379e-11
-2.61283e-09
1.28675e-08
2.17612e-09
2.56581e-09
-4.44886e-10
-1.60943e-09
-3.10667e-10
-2.45292e-09
-4.88808e-10
1.28301e-08
9.925e-09
-3.98802e-10
6.95313e-09
-1.21457e-09
-5.33975e-09
-9.71498e-09
-5.08494e-09
1.96209e-10
5.77738e-11
4.83903e-09
1.31636e-09
-1.70433e-08
-4.64639e-10
-8.44801e-10
-2.68927e-09
9.88331e-10
2.82885e-09
6.19353e-08
-8.74252e-11
-6.18478e-08
6.23522e-08
1.87644e-10
-6.25398e-08
-1.4177e-08
-6.49023e-11
1.4543e-08
-3.01124e-10
2.91587e-09
-1.94395e-09
2.66811e-09
1.79655e-09
-4.42961e-09
-4.061e-10
-5.81532e-10
4.71551e-10
-1.20737e-10
5.19448e-10
-3.63885e-10
1.94425e-08
1.10616e-09
-1.57096e-08
-2.20438e-10
-1.94582e-09
1.23282e-08
2.24716e-09
1.76556e-09
5.29673e-09
-2.01881e-09
-7.72332e-08
-2.41776e-08
-4.80373e-09
1.57834e-08
2.35236e-09
-4.08169e-10
-3.18322e-09
-1.23258e-09
5.14372e-10
-4.34701e-10
-1.08844e-08
-3.29218e-10
1.12136e-08
-1.07477e-08
-6.6314e-09
1.06634e-08
-9.37744e-09
8.77032e-09
5.55554e-11
1.68543e-09
1.03733e-08
-1.02114e-08
-1.61837e-10
6.70264e-10
7.97386e-11
1.03125e-08
8.47679e-10
-9.61797e-10
-2.1523e-10
-1.42446e-08
-5.11159e-10
-1.36457e-08
1.24457e-08
-1.17239e-08
-6.60076e-08
6.49619e-08
1.04569e-09
3.39883e-10
-3.20328e-10
1.18358e-08
-3.10922e-10
1.33007e-11
-2.03426e-09
2.77787e-09
-3.43065e-09
-1.34975e-08
-1.6429e-09
2.57201e-09
-4.76377e-09
-1.39546e-08
1.6751e-09
5.59619e-09
9.55199e-09
-8.8936e-09
-3.38663e-10
2.77413e-11
-9.34364e-09
-1.31221e-08
1.49738e-10
-6.27087e-08
2.37551e-10
6.24712e-08
6.96093e-10
6.3443e-08
-2.25652e-10
-1.36019e-09
-1.44435e-08
1.06939e-10
-6.33786e-08
6.32717e-08
1.818e-10
-6.2925e-08
6.27432e-08
4.34676e-10
6.18062e-08
1.5152e-10
-6.19577e-08
6.16362e-08
1.69962e-10
-8.79036e-08
8.85132e-08
-1.15673e-12
9.33996e-08
-9.3107e-08
-2.67937e-10
-8.66426e-08
-4.3386e-10
9.3358e-08
-1.83674e-10
-8.49278e-08
-7.68937e-10
9.34885e-08
1.73015e-10
-5.21812e-10
1.96106e-09
9.23642e-08
-6.93324e-08
6.21492e-08
-6.23312e-08
-6.29656e-08
6.14925e-08
1.43697e-10
-3.03434e-09
2.86841e-09
-1.39245e-08
6.42353e-11
1.31974e-10
1.78437e-09
8.92344e-09
-1.14296e-08
3.82983e-08
-3.44743e-08
-1.6657e-08
1.3775e-08
-5.83643e-11
-2.22154e-10
2.13334e-10
8.00466e-10
-1.51252e-10
3.58312e-10
4.5664e-09
1.02714e-09
-3.71144e-09
-2.67227e-10
3.16295e-10
-2.06777e-10
-2.50251e-09
1.30218e-08
2.34824e-09
-1.44493e-08
-2.56475e-09
-3.4828e-09
5.63267e-09
1.04934e-09
-2.6768e-09
1.42247e-08
-1.1485e-09
-2.73943e-09
3.54314e-09
-8.17135e-09
-1.90484e-08
-1.33218e-08
7.83449e-09
5.93815e-09
-2.73568e-10
-5.3905e-10
3.10886e-09
1.44451e-08
2.16411e-09
-1.70869e-09
-4.3125e-10
4.78471e-10
-2.6743e-10
1.60015e-08
-5.2093e-10
-1.58098e-08
-1.38217e-09
-1.19492e-09
3.06084e-10
-2.31978e-10
3.48476e-09
-1.68317e-08
5.42156e-10
-1.61556e-09
-2.21941e-09
-2.39161e-09
1.54378e-08
-9.06039e-08
-1.40019e-10
9.16902e-08
-1.91527e-10
-8.91785e-08
-4.77436e-10
9.31112e-08
-2.75939e-10
-9.29227e-08
-5.82018e-10
-1.70875e-09
1.653e-08
9.19915e-08
-1.95057e-10
3.08017e-11
-2.21485e-10
1.01341e-08
2.51878e-09
-8.13739e-09
-1.20441e-08
-5.67641e-09
8.45644e-09
1.42369e-09
-6.87419e-09
-6.11197e-09
9.00998e-09
-1.33028e-10
1.01549e-08
1.94338e-08
-1.78468e-08
3.06194e-09
-1.25748e-08
3.03856e-09
-6.99666e-08
3.95904e-09
-2.04439e-08
-1.30751e-08
-5.40019e-10
-5.95607e-09
-1.53025e-08
9.1258e-09
-1.52148e-08
4.97092e-10
4.19993e-10
-1.73682e-09
-1.63942e-08
1.69037e-08
7.86949e-09
-8.1651e-09
-5.11576e-09
1.5194e-08
-1.70876e-09
7.39471e-10
-1.2102e-09
3.10957e-10
1.18869e-08
3.32224e-09
7.09228e-08
-1.81486e-08
8.3362e-10
-1.48682e-08
-2.63563e-10
-3.08975e-10
-9.61958e-11
6.09536e-08
-6.12295e-08
-6.33478e-08
-6.312e-08
-6.25659e-11
-2.62957e-10
-9.25972e-08
-6.04535e-08
6.24146e-08
6.50736e-08
-6.02805e-08
6.45518e-08
-6.04642e-08
6.37828e-08
-6.07321e-08
6.3349e-08
9.23201e-08
3.26515e-10
-6.42108e-09
7.51106e-08
-6.53672e-08
6.48536e-11
-6.48536e-11
9.09917e-10
-3.51404e-10
1.5496e-08
-6.24253e-11
6.24253e-11
4.00751e-10
1.56138e-09
1.38674e-08
1.3285e-08
-2.766e-09
3.74536e-09
6.38361e-09
1.92362e-09
4.11314e-10
-2.86167e-10
-2.96606e-09
1.45187e-08
1.48441e-08
-4.27258e-09
1.1802e-08
2.17516e-10
1.73234e-10
2.85938e-09
-9.20088e-10
-1.64257e-09
-5.86668e-09
-1.86246e-10
-4.35245e-10
1.5289e-08
3.01825e-10
1.02669e-10
1.50433e-08
-2.5986e-08
1.75715e-08
2.61626e-09
1.36505e-09
2.44604e-09
-3.70791e-09
1.91855e-08
-1.79236e-08
-1.01156e-10
4.68863e-10
-1.4412e-09
-7.92189e-08
-7.07736e-08
1.40009e-09
-7.71952e-10
6.82853e-10
2.28796e-08
1.85381e-08
-6.37672e-09
9.34484e-11
-4.38386e-09
-2.43786e-09
2.99888e-08
1.4923e-10
1.48186e-08
7.35828e-08
7.06025e-11
5.36159e-10
-1.83481e-10
-2.45379e-10
-3.75407e-09
2.41491e-08
-1.4853e-08
1.097e-09
-1.4038e-08
-6.71205e-11
2.03168e-08
-2.86492e-08
9.13504e-10
2.16097e-09
-4.52465e-10
)
;

boundaryField
{
    back
    {
        type            empty;
        value           nonuniform 0();
    }
    ingreso
    {
        type            calculated;
        value           nonuniform List<scalar> 
14
(
-1.54286e-08
-1.54288e-08
-1.54288e-08
-1.54288e-08
-1.54286e-08
-1.54283e-08
-1.54288e-08
-1.54288e-08
-1.54286e-08
-1.54286e-08
-1.54288e-08
-1.5428e-08
-1.5428e-08
-1.54286e-08
)
;
    }
    salida
    {
        type            calculated;
        value           nonuniform List<scalar> 2(1.01411e-07 1.14589e-07);
    }
    front
    {
        type            empty;
        value           nonuniform 0();
    }
    defaultFaces
    {
        type            calculated;
        value           uniform 0;
    }
}


// ************************************************************************* //
