/*--------------------------------*- C++ -*----------------------------------*\
  =========                 |
  \\      /  F ield         | OpenFOAM: The Open Source CFD Toolbox
   \\    /   O peration     | Website:  https://openfoam.org
    \\  /    A nd           | Version:  7
     \\/     M anipulation  |
\*---------------------------------------------------------------------------*/
FoamFile
{
    version     2.0;
    format      ascii;
    class       volVectorField;
    location    "68";
    object      U;
}
// * * * * * * * * * * * * * * * * * * * * * * * * * * * * * * * * * * * * * //

dimensions      [0 1 -1 0 0 0 0];

internalField   nonuniform List<vector> 
591
(
(0.000828681 -2.4931e-05 1.21817e-18)
(0.000817751 -2.28279e-05 -6.6411e-19)
(0.000857241 -8.47578e-06 5.68753e-20)
(0.00085843 -1.01539e-05 -1.49142e-19)
(0.000842214 3.30993e-06 2.25627e-19)
(0.000802167 -4.08394e-05 -1.3965e-19)
(0.000559802 -0.000294712 8.06575e-19)
(0.000803065 4.15636e-06 2.08425e-18)
(0.00573457 0.00250099 9.87915e-19)
(0.000799247 -1.3055e-05 2.45518e-18)
(4.9347e-05 0.000169608 1.2185e-18)
(0.000930151 0.00137736 9.40906e-21)
(0.000799072 5.13486e-06 1.32551e-18)
(0.00160067 0.00239071 -7.87739e-19)
(0.000803319 2.65451e-06 -4.43879e-19)
(6.59209e-05 -0.00020256 2.40079e-22)
(0.000136638 0.000677196 7.05085e-19)
(0.000818791 6.48066e-05 -4.99139e-19)
(0.00192862 0.000392973 4.73807e-19)
(0.00135812 0.00025378 -2.47153e-19)
(0.000833395 -4.72059e-06 3.72747e-19)
(0.0034001 0.00655938 -8.1512e-20)
(2.74992e-05 7.00594e-05 2.70996e-19)
(0.000835056 -1.52223e-05 -4.51081e-19)
(1.12695e-05 -1.60348e-05 3.58998e-19)
(0.000772868 3.28872e-05 0)
(9.31064e-05 0.00047433 1.59992e-19)
(0.000543977 1.11236e-05 -1.78876e-19)
(0.000753924 4.78624e-05 1.14974e-18)
(0.000811724 4.9601e-05 5.90923e-19)
(5.75327e-05 -3.66065e-06 -4.50315e-24)
(3.26202e-05 -4.63773e-05 3.52245e-19)
(3.65582e-05 -3.09187e-06 -4.64314e-20)
(4.53951e-05 -1.18786e-05 0)
(5.45437e-05 -1.32023e-05 1.13168e-18)
(0.00117457 0.000131688 1.79957e-19)
(3.11746e-05 -5.383e-06 4.47231e-20)
(0.000826624 5.25561e-06 3.06125e-23)
(2.72971e-05 4.37218e-05 2.66079e-19)
(1.4531e-05 -0.000101166 -8.54981e-19)
(0.000635735 -0.00020407 9.60307e-19)
(2.50313e-05 -6.75057e-06 4.54912e-20)
(0.000801418 1.70168e-06 -1.58121e-18)
(0.00083063 4.18391e-05 -6.9129e-19)
(1.70745e-05 -7.92716e-06 0)
(5.49727e-05 6.94945e-06 8.52032e-20)
(0.00134571 0.00450222 8.93105e-19)
(7.60749e-05 1.60872e-05 8.63784e-20)
(0.000800364 1.66978e-05 0)
(0.000382301 -0.000205747 6.77693e-19)
(0.000381435 0.000273554 5.12002e-21)
(0.00039393 4.95614e-05 -1.00398e-18)
(0.00634838 0.0109418 -7.68611e-19)
(0.00622516 0.0107971 1.52802e-20)
(0.00561457 0.01038 1.45604e-18)
(0.00080917 2.8295e-05 0)
(6.70884e-05 3.10155e-05 0)
(0.000317597 1.438e-05 1.48094e-23)
(6.30254e-05 1.05586e-05 -3.46523e-19)
(0.000815167 -8.12081e-06 0)
(0.000636542 2.88278e-05 3.17627e-19)
(0.000833487 9.14833e-06 2.20841e-18)
(0.000799493 2.90772e-05 -5.41731e-19)
(0.000799419 1.51485e-05 -3.1581e-19)
(0.00171192 0.000483786 5.42679e-19)
(0.000798266 1.41153e-05 -1.15463e-18)
(0.000827961 1.8895e-05 -5.2434e-19)
(8.08069e-05 -2.43039e-06 -1.73444e-19)
(0.000688968 0.00226277 0)
(0.000836024 3.72944e-05 0)
(0.000777851 1.64574e-05 -1.39245e-18)
(3.81117e-05 1.60671e-05 0)
(0.000288482 0.000270587 3.269e-19)
(4.04198e-05 -1.73399e-05 0)
(4.16753e-05 -5.91619e-06 1.59502e-19)
(1.58467e-05 -4.46996e-05 -3.36735e-20)
(0.000790008 7.6332e-05 2.46967e-19)
(4.43424e-05 1.07359e-05 0)
(0.000800141 5.64743e-05 4.47474e-19)
(0.000771457 0.000293592 2.10766e-19)
(0.000964557 6.23987e-05 -3.98004e-20)
(4.30025e-05 2.31078e-05 -4.51947e-20)
(5.65104e-06 -2.31545e-05 0)
(0.000433198 0.000216773 1.70215e-19)
(2.85408e-06 2.2778e-05 0)
(0.000790822 3.71225e-05 -6.07149e-19)
(0.000607464 -0.000120567 0)
(6.49057e-05 -1.61587e-06 -1.74512e-19)
(3.30971e-06 -3.17442e-05 0)
(0.000827505 0.000241926 -3.41328e-19)
(3.75597e-06 -1.37824e-05 0)
(0.000423059 0.000323347 -1.30132e-23)
(0.000529445 0.000112037 0)
(0.000806031 4.51302e-05 -3.2565e-24)
(2.71778e-06 1.44464e-05 -4.21792e-20)
(0.000453959 -1.27952e-05 1.76388e-18)
(0.00102345 7.2209e-05 4.16109e-20)
(0.000835027 4.44911e-05 6.4124e-22)
(0.000738228 0.000657664 2.69546e-19)
(6.70382e-06 4.88489e-05 0)
(4.61268e-07 -4.79791e-05 -3.12056e-19)
(-2.00651e-05 -8.52106e-05 -1.10084e-18)
(4.08306e-06 7.79512e-05 -5.9643e-19)
(0.000623111 -2.03909e-05 0)
(8.14693e-06 0.000102757 0)
(0.000809912 2.46254e-05 2.18282e-18)
(0.000786989 2.38584e-05 1.53457e-18)
(0.000424879 -7.97373e-05 0)
(4.26143e-05 0.000218518 -8.95548e-19)
(-3.02023e-07 0.000169383 4.9673e-19)
(6.21154e-05 0.000411786 6.25235e-19)
(0.0003052 8.30732e-05 -9.37288e-19)
(0.000802943 2.00152e-05 1.37362e-19)
(0.000261359 -4.12702e-05 5.31322e-19)
(4.1836e-06 3.25376e-05 0)
(2.20806e-05 0.000286912 -1.09408e-18)
(0.000320109 0.000324026 -1.6173e-19)
(1.60701e-06 -3.90339e-05 1.46529e-19)
(0.000670274 0.000813474 0)
(0.000367963 0.000387974 5.7451e-20)
(0.000815318 1.52841e-05 1.07046e-18)
(0.000799339 1.50286e-06 -2.71867e-18)
(6.04308e-06 -4.44305e-05 0)
(0.00067516 -3.28098e-05 -1.12338e-19)
(0.000320752 -0.000112393 1.24347e-18)
(0.00264585 0.000806211 -3.36285e-19)
(5.50655e-06 0.000132993 -6.13244e-19)
(4.57248e-06 0.000162277 1.61957e-18)
(0.000711823 2.21864e-05 -3.89984e-20)
(6.33418e-05 -1.34605e-05 -7.50307e-19)
(0.000805844 2.84156e-05 -3.87794e-19)
(0.000760427 2.62186e-05 -4.10488e-20)
(3.72736e-05 0.000332954 -5.97e-19)
(0.000485853 6.65526e-05 -4.94021e-19)
(4.85543e-05 -3.33276e-06 1.56182e-19)
(0.000832618 2.81595e-05 -1.09548e-18)
(0.0015619 0.000238069 -1.13722e-18)
(4.20794e-06 6.26791e-05 4.9649e-19)
(0.000809407 2.75583e-05 -4.95187e-19)
(0.000910557 0.000542952 -7.85242e-20)
(0.000145073 0.000791675 0)
(0.00058131 6.48726e-05 0)
(0.000275401 5.36914e-05 -1.60997e-18)
(6.31114e-05 5.83328e-05 -1.37435e-18)
(3.06759e-05 2.04727e-05 0)
(0.00424702 0.00740005 -1.01973e-20)
(0.00422545 0.00737197 3.1652e-20)
(0.00442767 0.00757475 -4.96778e-21)
(0.00420671 0.00773526 0)
(0.00419908 0.00760108 5.77276e-19)
(0.00424423 0.00740139 -9.20068e-20)
(0.00421041 0.00804298 4.84491e-19)
(0.00428929 0.00742187 0)
(0.00420864 0.00853621 6.16814e-19)
(0.00432568 0.00745026 2.23923e-19)
(0.000823231 6.34319e-06 -1.37399e-18)
(0.000768808 5.33334e-05 0)
(0.000213721 5.27272e-05 1.27717e-19)
(5.01335e-05 1.56976e-05 8.72008e-20)
(7.76134e-05 4.45098e-05 6.80145e-19)
(0.000105342 4.08326e-05 -3.41732e-19)
(9.96246e-05 5.0781e-06 0)
(4.7946e-05 4.80303e-06 8.18527e-20)
(0.000206099 0.000132502 0)
(0.000165314 4.18612e-05 -5.24384e-20)
(0.000343146 0.000222438 -5.09342e-21)
(5.56123e-05 4.26879e-05 -4.37735e-19)
(9.01946e-05 2.69379e-05 -8.5263e-20)
(9.00084e-05 6.1472e-05 1.31219e-21)
(0.000255405 0.000366259 -6.66285e-19)
(0.000106942 0.00100309 0)
(4.18343e-05 5.23649e-05 3.43125e-19)
(0.000200471 0.00175173 0)
(0.000207642 0.000253364 7.04782e-19)
(3.76414e-05 -3.7713e-06 1.11516e-19)
(0.0004829 0.000164127 -1.72332e-19)
(0.000760463 2.41881e-05 -1.92449e-18)
(4.25145e-05 -1.25888e-06 4.45586e-24)
(0.000147838 2.41117e-05 2.24631e-19)
(0.000243947 9.21875e-05 -8.99492e-20)
(0.00088122 0.000704984 3.34997e-19)
(0.00072045 0.00163418 -9.23718e-21)
(0.000395231 0.0014239 -9.39617e-21)
(0.00102402 0.000548061 0)
(0.000101797 -1.57465e-05 1.11892e-18)
(0.000115277 1.52315e-05 -4.43229e-20)
(0.000454654 -0.000287448 -1.13625e-18)
(0.000813901 3.87632e-05 0)
(0.000181383 1.53159e-06 3.63367e-19)
(0.000300389 0.00131211 0)
(0.00107769 0.000773566 -7.30323e-20)
(0.000826438 3.36268e-05 -1.86586e-19)
(7.67038e-05 -2.13032e-05 -3.00037e-19)
(0.000828039 0.000319477 -2.08086e-20)
(5.63585e-05 -2.1415e-05 -5.99612e-19)
(0.000226314 0.000175249 8.64028e-20)
(0.000229616 0.000309022 -3.45071e-19)
(0.000885273 0.000247706 0)
(0.000814884 5.13257e-05 0)
(0.0002632 0.000136184 1.76878e-19)
(0.000233926 1.23036e-06 3.33547e-24)
(0.000184435 0.000205789 0)
(0.000294554 0.000653306 -5.55793e-21)
(0.000347528 -5.45102e-06 0)
(0.000371189 0.000600032 0)
(0.000108508 8.19002e-05 -1.34695e-21)
(0.000809891 2.78324e-05 -9.39589e-19)
(0.000807978 1.98005e-05 7.97575e-19)
(0.000128425 5.70106e-05 -1.49884e-19)
(0.000958123 0.000150133 8.50695e-20)
(0.000836578 4.30499e-05 3.33114e-19)
(0.000816488 2.69757e-05 -2.94205e-19)
(0.00101904 0.000413701 0)
(0.000438325 0.000119351 6.24551e-19)
(0.000898273 0.000320388 2.09177e-20)
(0.000576884 0.000156231 0)
(0.000271815 0.000447004 4.09709e-19)
(0.000261509 0.000216896 -8.44323e-20)
(0.00109533 0.000378001 -7.82276e-19)
(0.000623431 0.000104894 -1.79326e-19)
(0.000809262 7.29852e-05 -7.45376e-21)
(0.000840204 2.91193e-05 9.39798e-20)
(7.70736e-05 -8.74508e-05 -1.98175e-18)
(0.000738457 0.000381683 2.19273e-19)
(0.000668061 6.33866e-05 2.30671e-20)
(0.000706553 0.000279305 1.60135e-23)
(0.000729425 0.000459674 -4.09749e-19)
(0.000845472 2.94982e-05 9.0673e-20)
(7.16971e-05 7.95463e-05 0)
(0.000655824 0.000419587 -4.65999e-20)
(0.000183533 9.50318e-05 0)
(0.000374427 0.000501754 -2.64881e-19)
(0.000309856 0.000167583 0)
(0.000674522 0.000204311 3.55294e-19)
(0.000649175 0.000260092 -4.37333e-20)
(8.13341e-05 0.000103754 6.1927e-19)
(0.00087571 9.29488e-05 -1.62245e-18)
(5.74843e-05 2.18241e-05 2.57239e-19)
(0.000885915 6.80832e-05 -1.6853e-18)
(0.000839782 8.83211e-05 1.6304e-19)
(0.000809475 3.24094e-05 1.89304e-18)
(0.000814952 3.27711e-05 -1.32871e-19)
(0.00073589 7.25573e-05 0)
(0.000806072 2.57865e-05 8.95784e-19)
(0.000958631 0.000230339 -4.27184e-19)
(0.000772388 9.3311e-05 -4.83804e-19)
(0.00077825 0.000231384 -8.8139e-20)
(0.000213431 -0.000163857 -2.07942e-18)
(0.000746056 8.05836e-05 8.87661e-19)
(0.000640183 0.000595989 0)
(8.99473e-05 -0.000116297 0)
(0.00121978 0.000471837 4.97329e-19)
(0.000628351 -6.16128e-05 -3.25974e-18)
(0.0013426 0.000418186 5.76501e-19)
(0.00124001 0.000717822 -6.38795e-20)
(0.000811089 3.04744e-05 -2.11129e-19)
(0.00083493 6.72557e-05 -1.4253e-18)
(0.000814509 2.55011e-05 1.57702e-18)
(0.000816906 2.78163e-05 9.78421e-20)
(0.000669421 0.000352018 -4.40481e-20)
(0.000101595 0.000123143 5.59977e-24)
(0.000750018 -4.05686e-05 2.65135e-19)
(0.000217725 -0.000259326 -7.32793e-19)
(0.000622692 0.000186444 0)
(0.000708077 4.45373e-05 9.90592e-20)
(0.000692857 1.00312e-05 -3.80884e-19)
(0.00038884 0.000170935 3.93431e-20)
(0.000805863 0.000505582 -1.65503e-19)
(0.000148799 7.52994e-05 3.12646e-25)
(0.000811149 0.00041114 0)
(0.000978855 0.000318592 4.15849e-20)
(0.000755356 -7.61127e-05 -6.16354e-19)
(0.000347845 0.000105493 4.97891e-19)
(0.000903618 0.000425321 0)
(4.91239e-05 3.11557e-05 1.33735e-19)
(0.000483108 0.000267759 2.13987e-19)
(0.000505943 -0.000149163 -7.09647e-19)
(0.000132594 -0.00016054 -1.05723e-18)
(0.000823635 3.18788e-05 -4.86927e-19)
(0.000776781 -8.82953e-05 -1.94317e-19)
(0.000548893 0.000728978 -1.17457e-18)
(0.000846372 4.68674e-05 -6.74344e-20)
(0.000632363 -2.31222e-05 1.27503e-18)
(0.000701831 9.95199e-05 2.27823e-20)
(0.000530837 0.000209842 -1.65713e-19)
(3.13357e-05 -2.17557e-05 -8.75996e-20)
(0.000168154 -4.39033e-05 2.40651e-18)
(1.84549e-05 7.32467e-07 -1.94873e-19)
(0.000826365 0.000112356 3.63813e-19)
(0.000662087 0.000136462 0)
(0.000186553 -8.55101e-05 -1.04831e-18)
(0.000121258 -1.79623e-05 3.12968e-19)
(0.000108905 -3.60428e-05 1.22857e-23)
(0.000797239 0.000106612 -3.1932e-19)
(0.000153033 -1.26136e-05 0)
(0.000584137 0.000241983 0)
(0.000111247 0.000329997 -3.62911e-19)
(0.000859638 0.000100355 2.0963e-18)
(1.5043e-05 1.11838e-06 0)
(0.000877779 5.28656e-05 0)
(4.36351e-05 -2.59891e-05 0)
(0.000815407 4.51786e-05 -4.46911e-21)
(0.000790221 -4.58559e-05 0)
(0.00425983 0.0074063 8.07052e-20)
(0.00436138 0.00748597 1.43338e-19)
(0.000843944 -5.38023e-06 0)
(0.000785335 -4.82883e-05 8.10069e-19)
(0.000152708 0.000124899 1.49234e-19)
(0.000852005 6.87781e-05 8.07759e-19)
(0.000129941 0.000101696 2.34436e-20)
(0.000778576 -2.90379e-05 6.24565e-19)
(3.48933e-05 9.69153e-06 0)
(2.84938e-05 -1.36634e-05 -4.4856e-20)
(0.000895493 4.93374e-05 -4.86651e-19)
(3.34651e-05 -3.2148e-05 -6.69922e-19)
(0.000755377 0.000121281 -4.23317e-20)
(0.00016834 0.000162681 -1.88131e-19)
(0.000814396 2.71965e-05 0)
(0.00468254 0.00815355 9.00707e-22)
(0.00017917 0.000787495 3.33564e-19)
(0.000117315 -5.82931e-05 -9.14689e-19)
(6.11662e-05 -3.51343e-05 -1.16896e-18)
(0.000647393 1.41483e-05 1.89885e-20)
(0.000580572 0.000408586 0)
(0.000417854 0.000442423 -2.56373e-19)
(8.4692e-05 -5.98567e-05 1.18389e-18)
(0.000605407 5.79745e-07 7.70381e-20)
(4.21094e-05 1.89281e-06 4.07168e-19)
(0.000697992 -5.29464e-05 1.17185e-18)
(0.000810425 3.23493e-05 -5.96023e-19)
(6.57865e-05 -5.52368e-05 1.70957e-18)
(0.00084249 -2.29188e-05 -5.59764e-24)
(0.000623912 6.9466e-06 -3.76569e-20)
(0.000866289 6.88949e-05 0)
(0.000837848 3.86558e-05 0)
(0.00591713 0.00723939 2.59629e-19)
(1.92544e-05 -2.14323e-06 -1.19601e-19)
(0.000127823 -0.000100715 7.73109e-19)
(0.000723202 0.00011862 -6.96568e-19)
(2.23515e-05 -7.4234e-08 2.01544e-19)
(0.000618395 -3.4796e-05 -7.23952e-19)
(0.000741662 3.71142e-05 1.55834e-18)
(0.000702975 0.000159413 -3.55501e-19)
(0.000807688 -1.28212e-05 3.60619e-19)
(7.69319e-05 -3.37923e-05 1.11621e-18)
(0.000799455 7.16276e-06 -3.22752e-19)
(0.000865524 4.21631e-05 0)
(0.000540066 0.000303294 4.21088e-20)
(0.000855495 5.06648e-05 -9.46355e-19)
(1.9793e-05 2.29869e-06 9.11391e-19)
(0.000851728 4.65408e-05 9.65672e-19)
(0.000855881 7.14126e-06 -9.60348e-19)
(0.000747348 -1.8174e-06 -5.69287e-19)
(0.00051836 -7.09327e-05 -5.25744e-19)
(0.00432861 0.00745242 2.47018e-19)
(0.00422354 0.00752949 -2.5401e-19)
(0.00422148 0.00758765 2.66767e-19)
(0.00425575 0.00741054 1.97977e-19)
(0.000845003 -2.5901e-05 1.44027e-19)
(0.00447515 0.00751164 0)
(0.00440281 0.00751646 -3.86857e-19)
(3.04755e-05 -1.35343e-07 -9.98243e-19)
(0.00417054 0.00746942 -6.33667e-20)
(0.00414585 0.00743242 -2.21519e-19)
(0.00602993 0.0106066 0)
(0.00654052 0.0111876 3.71418e-20)
(0.00600988 0.0105764 0)
(0.00655621 0.0112112 1.30874e-19)
(0.00599726 0.0106004 2.69713e-19)
(0.00659287 0.011228 1.24598e-20)
(0.00593589 0.0106132 -7.76833e-19)
(0.00662311 0.0111469 8.15001e-21)
(0.00390376 0.00920043 -1.90881e-19)
(0.00418686 0.00748855 3.89924e-21)
(0.00423814 0.00755293 7.9359e-20)
(0.00415031 0.00743469 4.12047e-20)
(0.000876112 0.000191111 4.46825e-20)
(1.06833e-05 1.52441e-06 0)
(0.000699265 -0.000123916 0)
(0.000667006 4.96825e-05 0)
(0.00244426 0.0011087 4.24317e-21)
(0.000753864 -3.163e-05 1.72616e-19)
(4.06113e-05 5.82516e-06 4.54138e-20)
(1.08698e-05 -2.76971e-05 1.65355e-18)
(0.000849486 1.51911e-05 0)
(2.79974e-05 1.27522e-05 -1.91763e-19)
(0.000140427 0.000223762 0)
(1.86859e-05 -1.04493e-06 0)
(1.52016e-05 -1.39458e-06 0)
(0.00082092 0.000137924 1.13733e-20)
(0.000810303 -1.67484e-05 1.79354e-19)
(3.62288e-05 0.000276067 -1.78554e-23)
(0.000158023 0.000273358 -1.84224e-18)
(0.000601497 0.000329883 -8.5715e-20)
(0.000896175 0.000110686 6.00437e-19)
(0.000663752 -0.000227374 6.73014e-19)
(0.000363554 0.00110904 0)
(0.000469639 0.000574829 2.71571e-18)
(9.07013e-05 0.000146582 -1.80339e-18)
(2.31675e-05 9.10964e-08 0)
(0.00082074 -5.63438e-05 3.63237e-20)
(1.6651e-05 3.66373e-05 1.6448e-18)
(0.000899592 3.1524e-05 2.71249e-19)
(-1.25407e-05 -4.22417e-06 3.80542e-18)
(0.000929918 3.96697e-05 -2.69103e-19)
(0.00135482 0.000151624 7.47367e-19)
(3.58861e-05 -1.08372e-05 8.25867e-20)
(3.72779e-05 4.01781e-06 -8.59227e-19)
(5.0604e-05 0.000143504 0)
(0.00090784 7.9056e-05 5.98672e-19)
(0.000493035 0.000368238 2.37185e-19)
(0.000671532 1.79188e-05 -3.89222e-20)
(0.0007761 -4.98347e-06 2.57235e-19)
(0.000736186 -0.000185575 0)
(0.00632155 0.0108968 -1.68071e-19)
(0.00637928 0.0109744 4.05861e-19)
(0.00616067 0.0107317 -6.18482e-19)
(0.00650158 0.011133 -8.09887e-20)
(3.48998e-05 0.000119598 8.00685e-19)
(0.000917559 5.95584e-05 1.46298e-22)
(0.0064118 0.0110068 -3.86488e-19)
(0.00628252 0.0108465 5.48499e-19)
(0.0060808 0.0106735 -4.16847e-19)
(0.00652206 0.0111654 -6.8148e-20)
(8.07284e-05 0.000509705 -2.01851e-20)
(8.87e-05 -0.000203382 -7.93711e-19)
(0.000679006 -2.05688e-05 -7.63939e-19)
(0.000722793 0.000220509 0)
(0.000799901 6.40464e-07 0)
(0.000185628 0.000391198 3.36357e-19)
(0.000597093 0.000517076 -5.41967e-19)
(1.05485e-05 -1.7717e-06 1.78432e-19)
(0.000201804 0.000466894 -7.38522e-19)
(0.00100692 0.000970719 -1.12699e-19)
(0.000741424 0.000166206 0)
(0.000786516 0.000182796 1.31048e-19)
(0.00635456 0.00587815 1.13151e-18)
(0.000740418 0.0011269 8.26683e-20)
(3.92884e-05 3.86962e-05 -7.44839e-20)
(0.000811344 1.58358e-05 0)
(0.000875062 2.62055e-05 -3.56986e-20)
(3.55114e-05 3.48848e-06 -1.96744e-19)
(3.06918e-05 4.90953e-06 1.9303e-19)
(0.000832296 2.0019e-05 5.37341e-19)
(0.000970193 0.000108436 6.58519e-19)
(0.000575265 3.8e-05 0)
(0.000222263 -0.000303021 -3.98107e-19)
(0.000913715 0.000148416 3.89685e-19)
(1.48989e-05 -6.34864e-05 2.03159e-19)
(0.00144812 0.00044224 -2.58151e-18)
(0.000605165 -6.76338e-06 0)
(0.000789712 0.000144386 3.7555e-19)
(9.40399e-05 0.000396806 0)
(0.00118738 0.00816268 4.6223e-19)
(0.000487763 0.0005005 -1.22477e-18)
(0.000542236 0.00100508 -1.83786e-19)
(0.000879364 1.89164e-05 -1.46082e-19)
(1.36557e-05 2.59335e-05 0)
(0.000942791 7.70185e-05 6.11845e-19)
(0.0041063 0.00739539 8.14334e-20)
(0.00417142 0.00747393 4.7306e-20)
(0.00449882 0.00751434 4.54103e-19)
(0.00444419 0.00754059 -3.29189e-19)
(0.00647552 0.01111 8.10663e-20)
(0.00391488 0.00714597 -9.63692e-22)
(0.0055072 0.00779606 -5.64818e-19)
(0.00409791 0.00737159 5.21901e-21)
(0.00518771 0.00785604 5.11738e-19)
(0.00407969 0.00734003 -4.87206e-20)
(0.00495272 0.00771539 0)
(0.00408497 0.00736441 -8.56608e-20)
(0.00474139 0.00758677 4.92565e-19)
(0.00409823 0.00737604 8.75202e-20)
(0.00457397 0.00752636 0)
(0.00428336 0.00742045 1.39763e-19)
(0.00423967 0.00759922 5.80271e-19)
(0.00446659 0.00752595 -5.55055e-19)
(0.00438707 0.00750407 3.71424e-19)
(0.00422814 0.00752538 2.88381e-19)
(0.00643095 0.0110435 -4.97625e-21)
(0.00411774 0.00740153 3.11624e-20)
(0.00645901 0.0110733 0)
(2.47976e-05 6.17737e-06 -1.89899e-19)
(0.00199969 0.00654332 2.28331e-19)
(0.000839811 -4.47866e-05 1.09656e-19)
(0.000857008 1.02538e-05 0)
(1.78632e-06 1.5682e-06 -3.99195e-19)
(3.95484e-07 -0.000142016 6.92083e-19)
(2.45173e-05 5.77554e-05 2.08942e-18)
(0.000825418 0.000179619 -9.00931e-20)
(0.000799648 9.63554e-06 7.06552e-19)
(1.67959e-06 -1.45616e-06 3.10055e-19)
(1.97191e-05 -3.51448e-05 -1.84606e-18)
(0.000761721 2.76442e-05 1.63188e-19)
(0.000866337 0.00012422 -3.08058e-20)
(0.000800142 -9.17711e-06 1.4817e-19)
(0.000410911 0.000679226 0)
(5.18228e-05 -0.000148339 1.15172e-18)
(0.000861528 9.44208e-06 1.52548e-19)
(2.03707e-05 2.44213e-05 0)
(0.000113955 0.00056179 -6.31345e-19)
(0.000606686 0.00059574 1.31818e-18)
(0.000326448 0.000748816 0)
(0.000800749 -1.72125e-05 0)
(0.000800412 3.11198e-06 1.17485e-18)
(1.81891e-05 4.99787e-05 -3.51566e-18)
(1.72392e-05 7.57344e-06 3.737e-19)
(0.00011603 0.000146603 0)
(4.71235e-05 -4.14833e-05 0)
(6.26537e-05 0.000113709 2.0104e-19)
(0.000933835 0.000186488 3.5051e-19)
(0.000799864 1.6011e-05 -1.39638e-18)
(2.329e-05 3.39184e-05 0)
(0.000468838 1.21199e-05 -6.04008e-20)
(0.000801307 3.92725e-05 -1.56378e-19)
(0.000839566 3.42961e-05 1.06394e-18)
(0.000258147 0.00054255 6.32346e-19)
(0.000872148 0.000156043 0)
(2.01378e-05 -2.46071e-05 5.38793e-19)
(2.78002e-06 -6.59378e-06 -3.20034e-19)
(0.000986602 3.07479e-05 0)
(0.00103321 0.00226243 0)
(0.00094595 -7.45278e-06 0)
(0.000999885 0.000206259 4.27275e-19)
(0.000816692 -3.28194e-05 -2.83839e-19)
(0.000927413 0.000109763 -6.84928e-19)
(0.000800264 3.33088e-06 0)
(4.2313e-05 6.99942e-05 -1.71601e-19)
(0.000174189 0.000327784 1.08134e-18)
(0.00079841 1.68411e-05 -1.62145e-23)
(0.00108725 0.000208756 -6.69124e-19)
(0.00109037 0.000124628 0)
(2.675e-06 6.85171e-06 2.51082e-19)
(1.93304e-05 -1.59838e-05 -1.94355e-19)
(0.000581825 3.84212e-05 6.95164e-21)
(1.37521e-05 -8.36133e-05 0)
(0.00105756 0.000253489 9.50245e-19)
(0.00502887 0.00974941 -2.83083e-19)
(0.00312112 0.00961935 1.27268e-18)
(4.63157e-05 -0.000107878 -1.91382e-19)
(5.85101e-05 -7.62653e-05 1.85992e-18)
(0.00119183 0.000243595 1.67338e-19)
(0.00132777 0.00108056 2.3413e-19)
(0.000812181 2.04241e-07 -7.32729e-19)
(0.000199497 0.000952139 -2.38349e-19)
(0.000812292 0.000930334 -2.18625e-19)
(0.00079988 -2.9999e-06 0)
(8.56473e-05 0.000629416 0)
(9.57926e-05 0.000283254 -4.0449e-23)
(0.000720028 -4.10215e-05 -1.68018e-23)
(0.000821588 6.34658e-05 1.5265e-19)
(0.00263064 0.00206325 -1.2315e-18)
(0.00175936 0.00923947 -1.17222e-19)
(0.000834092 5.0414e-05 4.92322e-19)
(0.00632802 0.0040462 -1.75965e-19)
(0.00672107 0.0115578 -1.36479e-20)
(0.00473419 0.00784382 4.92984e-21)
(0.000801624 1.37657e-05 -2.19261e-18)
(0.000835521 1.04885e-05 4.43557e-24)
(9.53772e-06 -8.0671e-06 -3.48094e-19)
(4.67095e-05 9.11028e-05 -3.49352e-19)
(6.76916e-05 0.000272121 8.75447e-19)
(1.15372e-05 1.66803e-05 4.90513e-19)
(8.968e-05 0.000231874 3.69839e-19)
(0.000822441 2.53418e-05 0)
(0.00534811 0.00949246 1.95047e-20)
(0.00153171 0.000633169 -2.61185e-20)
(0.000819927 3.38371e-05 3.60156e-19)
(3.76068e-05 -8.40837e-05 0)
(0.00184796 0.000740439 5.46115e-19)
(9.9466e-06 7.9623e-06 -2.70213e-19)
(3.45541e-05 2.91456e-05 9.72034e-20)
(0.00132535 0.00139494 6.36678e-19)
(0.000736108 4.73363e-05 1.83145e-19)
(5.69315e-06 -1.83051e-06 -1.70241e-19)
(0.00206315 0.0015569 -1.05611e-18)
(0.000126517 0.000180356 -8.18914e-19)
(0.00392152 0.00848759 -1.09113e-18)
(6.02418e-06 1.71999e-06 8.81619e-20)
(0.000140611 -0.000132879 -1.25623e-18)
(5.08018e-05 -5.81027e-05 4.05737e-20)
(0.00152673 0.000979253 0)
(0.0010382 0.000138814 -4.06928e-22)
(0.000454264 0.000849595 -4.02145e-20)
(0.000802698 2.70855e-05 -2.34075e-19)
(8.71432e-05 0.00018655 7.36216e-19)
(3.40463e-05 -6.31054e-05 4.04105e-19)
(1.88679e-05 1.57109e-05 -9.4731e-20)
(3.23171e-05 9.40558e-05 -3.20358e-19)
(0.000204559 -0.000268725 -5.45092e-19)
(0.00325152 0.0034579 2.83572e-21)
)
;

boundaryField
{
    back
    {
        type            empty;
    }
    ingreso
    {
        type            fixedValue;
        value           uniform (0.0008 0 0);
    }
    salida
    {
        type            zeroGradient;
    }
    front
    {
        type            empty;
    }
    defaultFaces
    {
        type            noSlip;
    }
}


// ************************************************************************* //
