/*--------------------------------*- C++ -*----------------------------------*\
  =========                 |
  \\      /  F ield         | OpenFOAM: The Open Source CFD Toolbox
   \\    /   O peration     | Website:  https://openfoam.org
    \\  /    A nd           | Version:  7
     \\/     M anipulation  |
\*---------------------------------------------------------------------------*/
FoamFile
{
    version     2.0;
    format      ascii;
    class       volScalarField;
    location    "102.5";
    object      p;
}
// * * * * * * * * * * * * * * * * * * * * * * * * * * * * * * * * * * * * * //

dimensions      [0 2 -2 0 0 0 0];

internalField   nonuniform List<scalar> 
591
(
0.000123829
0.000123845
0.00012385
0.000123796
0.000123799
0.00012387
0.000123857
0.000123834
0.000116957
0.000123854
0.000124042
0.000122793
0.00012384
0.000119682
0.000123834
0.000123875
0.000123835
0.000123884
0.00012191
0.000123216
0.000123816
-3.52317e-06
0.000124036
0.000123817
0.000123991
0.000123841
0.000123957
0.000123951
0.000123854
0.000123863
0.000124011
0.000123985
0.000124005
0.000124004
0.000124006
0.000123328
0.000124001
0.000123819
0.00012403
0.000123947
0.000123895
0.000123997
0.000123849
0.000123874
0.000123994
0.000124016
0.000119188
0.00012402
0.000123853
0.000123965
0.000123974
0.000124002
2.39459e-05
3.05903e-05
4.78375e-05
0.000123847
0.000124025
0.000124018
0.000124018
0.000123827
0.000123914
0.000123846
0.000123842
0.000123894
0.000122521
0.000123845
0.000123849
0.000124014
0.000120688
0.000123861
0.000123853
0.000124022
0.000124
0.000123999
0.000124005
0.00012398
0.000123821
0.000124018
0.000123823
0.000123764
0.000123596
0.000124023
0.000123982
0.00012397
0.000124031
0.000123835
0.000123919
0.000124013
0.000123975
0.000123727
0.000123987
0.000123942
0.000123953
0.000123826
0.000124028
0.000123984
0.000123528
0.000123427
0.000123602
0.000124035
0.000123936
0.00012387
0.000124041
0.000123791
0.000124043
0.000123847
0.000123843
0.000123985
0.000124036
0.000124039
0.000123932
0.000124014
0.00012386
0.000124016
0.000124033
0.000124021
0.000123976
0.000123965
0.000123538
0.000123943
0.000123847
0.000123838
0.000123939
0.000123823
0.000123998
0.000120151
0.000124043
0.000124022
0.000123593
0.000124007
0.000123836
0.00012352
0.000123983
0.000123972
0.00012401
0.000123852
0.000122584
0.000124038
0.000123838
0.000123528
0.000123602
0.000123936
0.000124025
0.000124031
0.000124024
7.61912e-06
3.68064e-06
2.07328e-06
3.81615e-05
3.67012e-05
5.66353e-06
3.83143e-05
1.57433e-05
3.7298e-05
1.78102e-05
0.000123847
0.000123837
0.000124031
0.00012402
0.000124028
0.000124028
0.000124019
0.000124014
0.000124031
0.000124028
0.000123997
0.000124028
0.000124024
0.000124032
0.000123978
0.00012335
0.000124031
0.000122088
0.000124018
0.000124009
0.000123963
0.000123855
0.000124009
0.000124026
0.000124028
0.000123447
0.000122433
0.000123007
0.000123396
0.000124014
0.000124022
0.000123913
0.000123815
0.000124018
0.000122927
0.000123254
0.000123815
0.000124007
0.000123705
0.000124001
0.000124026
0.000124002
0.000123672
0.000123806
0.000124023
0.000124026
0.000124028
0.00012383
0.000124007
0.000123827
0.000124035
0.000123839
0.000123839
0.000124031
0.00012363
0.000123806
0.00012385
0.00012349
0.000123985
0.000123636
0.000123925
0.000123945
0.000124016
0.000123402
0.000123912
0.0001238
0.000123799
0.000123982
0.000123747
0.000123895
0.000123813
0.000123728
0.000123791
0.000124034
0.000123793
0.000124034
0.00012389
0.000124014
0.000123855
0.000123857
0.000124038
0.00012374
0.000124022
0.000123729
0.000123779
0.000123844
0.000123822
0.000123861
0.000123848
0.000123617
0.00012382
0.000123775
0.000123985
0.000123839
0.0001237
0.000123975
0.000123246
0.000123816
0.000123136
0.000123024
0.00012383
0.000123793
0.000123833
0.000123829
0.000123806
0.000124037
0.000123876
0.000123946
0.000123891
0.00012388
0.000123892
0.000123992
0.000123641
0.000124033
0.000123676
0.000123563
0.000123864
0.000124012
0.000123588
0.000124025
0.000123939
0.000123944
0.000123975
0.000123856
0.000123833
0.000123672
0.000123787
0.00012383
0.000123871
0.000123934
0.000123994
0.000124013
0.000124018
0.000123772
0.000123882
0.000124006
0.000124013
0.000124007
0.000123797
0.000124021
0.000123898
0.000124011
0.000123758
0.000124021
0.000123745
0.000123996
0.000123887
0.000123831
1.16438e-05
2.19145e-05
0.000123766
0.000123852
0.000124036
0.000123778
0.000124036
0.000123862
0.00012402
0.000123996
0.000123726
0.00012399
0.000123819
0.000124034
0.000123855
-2.09478e-07
0.000123734
0.000124002
0.000123997
0.000123684
0.000123851
0.000123895
0.000123991
0.000123739
0.000124014
0.000123895
0.000123847
0.000123989
0.00012379
0.000123714
0.000123754
0.000123857
4.74928e-05
0.000124008
0.000123987
0.000123845
0.000124015
0.000123922
0.000123867
0.000123851
0.000123834
0.000124
0.000123862
0.000123765
0.000123902
0.000123771
0.000124014
0.000123778
0.00012384
0.000123873
0.000123956
1.98753e-05
2.73361e-05
3.4297e-05
9.64098e-06
0.000123818
3.30563e-05
2.60035e-05
0.000124011
1.90763e-05
1.70318e-05
3.81861e-05
7.57787e-06
3.99371e-05
5.60644e-06
4.08305e-05
3.69022e-06
4.28122e-05
1.87749e-06
3.64109e-05
2.32003e-05
2.94523e-05
1.49942e-05
0.000123703
0.000124023
0.000123886
0.0001239
0.000120849
0.000123937
0.000124017
0.000123987
0.000123782
0.000124023
0.000124031
0.000124002
0.000123999
0.000123761
0.000123834
0.000124015
0.000124021
0.000123856
0.000123716
0.000123809
0.000123366
0.000123817
0.00012404
0.000124006
0.000123846
0.00012403
0.000123686
0.00012386
0.000123646
0.000122804
0.000124
0.000124013
0.000124039
0.000123702
0.000123901
0.000123644
0.000123861
0.000123853
2.60452e-05
2.18797e-05
3.30376e-05
1.16199e-05
0.000124042
0.000123694
1.9822e-05
2.82569e-05
3.56037e-05
9.58974e-06
0.000123866
0.000123942
0.000123809
0.000123817
0.000123836
0.000123983
0.000123772
0.000123996
0.000123949
0.00012306
0.000123819
0.000123785
5.9384e-05
0.000123186
0.000124028
0.00012383
0.000123718
0.000124016
0.000124019
0.000123809
0.000123608
0.000123843
0.000123884
0.000123693
0.000123972
0.000122855
0.000123764
0.000123792
0.000123992
0.000100853
0.000123838
0.000123446
0.000123754
0.000124028
0.000123656
1.08977e-05
2.1117e-05
3.53693e-05
2.81934e-05
1.36637e-05
5.6292e-08
4.20865e-05
2.69162e-06
4.01597e-05
4.76369e-06
3.94175e-05
6.81643e-06
3.86253e-05
8.8591e-06
3.72918e-05
1.36754e-05
3.17299e-05
3.05863e-05
2.39393e-05
2.52796e-05
1.77672e-05
1.294e-05
1.57094e-05
0.000124022
0.000102366
0.000123817
0.000123743
0.000124025
0.000123916
0.000124032
0.000123747
0.000123875
0.000123992
0.000123987
0.000123996
0.000123745
0.00012384
0.000123761
0.00012395
0.000123775
0.000124026
0.000123906
0.000123735
0.000123743
0.000123851
0.000123845
0.000124033
0.000124024
0.000124038
0.000123991
0.000124039
0.000123661
0.000123841
0.000124028
0.000123786
0.000123918
0.000123849
0.000123902
0.000123728
0.00012399
0.000123989
0.000123303
0.00012133
0.00012303
0.000123575
0.000123839
0.00012367
0.000123853
0.000124034
0.000124005
0.000123846
0.000123461
0.000123438
0.000124027
0.000123993
0.000123866
0.000123956
0.000123502
5.83051e-05
4.0117e-05
0.000123962
0.00012398
0.000123344
0.000122705
0.000123827
0.000123587
0.000123334
0.000123836
0.000123762
0.000124024
0.000123869
0.000123903
0.000118962
5.44599e-05
0.000123872
8.12519e-05
1.86263e-06
-3.80352e-07
0.000123836
0.000123804
0.000123992
0.000124037
0.000124031
0.000124027
0.000124033
0.000123822
-2.30643e-06
0.00012278
0.000123865
0.000123968
0.000121967
0.000124025
0.000124026
0.000122248
0.000123942
0.000123994
0.000121647
0.000124036
7.6319e-05
0.000124024
0.000123755
0.000123985
0.000122331
0.000123548
0.000123626
0.000123873
0.000124038
0.000123977
0.000124025
0.000124039
0.000123826
0.00011613
)
;

boundaryField
{
    back
    {
        type            empty;
    }
    ingreso
    {
        type            zeroGradient;
    }
    salida
    {
        type            fixedValue;
        value           uniform 0;
    }
    front
    {
        type            empty;
    }
    defaultFaces
    {
        type            zeroGradient;
    }
}


// ************************************************************************* //
