/*--------------------------------*- C++ -*----------------------------------*\
  =========                 |
  \\      /  F ield         | OpenFOAM: The Open Source CFD Toolbox
   \\    /   O peration     | Website:  https://openfoam.org
    \\  /    A nd           | Version:  7
     \\/     M anipulation  |
\*---------------------------------------------------------------------------*/
FoamFile
{
    version     2.0;
    format      ascii;
    class       volVectorField;
    location    "102.5";
    object      U;
}
// * * * * * * * * * * * * * * * * * * * * * * * * * * * * * * * * * * * * * //

dimensions      [0 1 -1 0 0 0 0];

internalField   nonuniform List<vector> 
591
(
(0.000837758 -3.69781e-06 1.21622e-18)
(0.000834033 -3.27323e-06 -6.61585e-19)
(0.000853332 2.07305e-05 5.69884e-20)
(0.00086798 -2.67092e-05 -1.49009e-19)
(0.000856244 -1.13813e-05 2.2543e-19)
(0.000803629 -3.82032e-05 -1.39566e-19)
(0.00056225 -0.000220411 8.06077e-19)
(0.000803661 4.26391e-06 2.10741e-18)
(0.00572248 0.00251076 9.87944e-19)
(0.000817493 8.14992e-07 2.44549e-18)
(4.57133e-05 0.000159486 1.21784e-18)
(0.00093889 0.00139627 9.40688e-21)
(0.00080139 4.29722e-06 1.32261e-18)
(0.00160432 0.00240479 -7.87355e-19)
(0.000803269 1.40503e-06 -4.46478e-19)
(4.17569e-05 -0.000145598 2.52417e-22)
(0.000141136 0.000668081 7.04761e-19)
(0.000817772 8.05659e-05 -4.96872e-19)
(0.00189636 0.000392161 4.73709e-19)
(0.00135917 0.00025781 -2.47069e-19)
(0.000831063 -8.94641e-06 3.73072e-19)
(0.00340064 0.00656001 -8.14445e-20)
(2.27431e-05 6.29924e-05 2.7085e-19)
(0.000835915 -2.57888e-05 -4.51516e-19)
(5.80134e-06 -1.06903e-05 3.58778e-19)
(0.00079375 4.46906e-05 0)
(9.48289e-05 0.000466063 1.59923e-19)
(0.000577513 -2.84067e-06 -1.78766e-19)
(0.000767213 4.76769e-05 1.14903e-18)
(0.000805881 7.19335e-05 5.84153e-19)
(4.80532e-05 -5.7881e-06 -5.36316e-24)
(2.03129e-05 -3.80218e-05 3.52038e-19)
(2.71786e-05 -2.49468e-06 -4.64042e-20)
(3.66478e-05 -1.22554e-05 0)
(4.509e-05 -1.28237e-05 1.13101e-18)
(0.00116983 0.000141019 1.7982e-19)
(2.27673e-05 -4.05099e-06 4.46971e-20)
(0.000823903 4.70887e-07 3.11576e-23)
(2.26136e-05 3.76673e-05 2.65929e-19)
(-8.97314e-06 -5.66733e-05 -8.52913e-19)
(0.000660836 -0.000187334 9.58658e-19)
(1.75017e-05 -4.72609e-06 4.54648e-20)
(0.000815315 2.06927e-05 -1.57751e-18)
(0.000831953 5.07253e-05 -6.90743e-19)
(1.11841e-05 -5.25274e-06 0)
(4.709e-05 3.45625e-06 8.51546e-20)
(0.00134975 0.00450305 8.92771e-19)
(6.68005e-05 9.55732e-06 8.63301e-20)
(0.000802672 1.6879e-05 0)
(0.000395498 -0.000232644 6.76906e-19)
(0.000391144 0.000265215 5.1175e-21)
(0.000405721 2.9812e-05 -1.0034e-18)
(0.00634757 0.0109402 -7.68628e-19)
(0.00622446 0.0107953 1.52873e-20)
(0.00561456 0.0103782 1.45585e-18)
(0.000805247 4.95697e-05 0)
(6.01224e-05 2.4389e-05 0)
(0.000320997 -1.03952e-05 2.79758e-23)
(5.46925e-05 6.03818e-06 -3.46328e-19)
(0.000812083 -6.79317e-06 0)
(0.000666771 2.81946e-05 3.17433e-19)
(0.00084722 2.94007e-05 2.20771e-18)
(0.000812305 3.98316e-05 -5.36998e-19)
(0.000800061 1.1348e-05 -3.1564e-19)
(0.00171359 0.000486696 5.42413e-19)
(0.000812208 3.37729e-05 -1.1446e-18)
(0.000839798 3.79045e-05 -5.23826e-19)
(6.86098e-05 -8.04497e-06 -1.73345e-19)
(0.000690839 0.00225711 0)
(0.000846047 5.02286e-05 0)
(0.000794073 2.87257e-05 -1.39226e-18)
(3.28092e-05 1.27966e-05 0)
(0.000293796 0.000261843 3.26744e-19)
(3.09972e-05 -1.50475e-05 0)
(3.31676e-05 -5.44449e-06 1.59412e-19)
(4.94259e-06 -3.2949e-05 -3.36531e-20)
(0.000804892 7.92769e-05 2.4692e-19)
(3.80182e-05 7.85815e-06 0)
(0.00081372 5.56473e-05 4.47377e-19)
(0.000782984 0.000296258 2.10651e-19)
(0.000960219 6.92299e-05 -3.97602e-20)
(3.74659e-05 1.87286e-05 -4.51691e-20)
(3.18106e-06 -1.02925e-05 0)
(0.00044444 0.000209779 1.70127e-19)
(2.64293e-06 1.54887e-05 0)
(0.000807513 4.92368e-05 -6.07758e-19)
(0.000652269 -0.000113982 0)
(5.50691e-05 -5.27009e-06 -1.74413e-19)
(7.73209e-07 -1.46696e-05 0)
(0.000837518 0.000242971 -3.41128e-19)
(1.80466e-06 -5.58157e-06 0)
(0.000434075 0.000318689 -1.35385e-23)
(0.000547542 0.000106806 0)
(0.000817278 4.46154e-05 -3.12953e-24)
(2.09707e-06 9.11458e-06 -4.21553e-20)
(0.000476617 -3.09408e-05 1.76282e-18)
(0.00101729 7.40769e-05 4.15771e-20)
(0.000778614 4.76667e-05 6.41591e-22)
(0.00074895 0.000660152 2.69409e-19)
(6.87948e-06 3.74648e-05 0)
(-7.59468e-06 -1.46461e-05 -3.12182e-19)
(-3.74651e-05 -7.34105e-06 -1.10152e-18)
(5.14892e-06 6.26179e-05 -5.96148e-19)
(0.000590738 -3.00499e-05 0)
(9.27031e-06 8.5723e-05 0)
(0.000821829 3.57637e-05 2.18102e-18)
(0.00080274 3.91398e-05 1.53372e-18)
(0.000455306 -0.000117602 0)
(3.86444e-05 0.000205555 -8.95037e-19)
(1.4671e-06 0.000148463 4.96767e-19)
(5.5468e-05 0.000387442 6.25075e-19)
(0.000312478 6.2539e-05 -9.36872e-19)
(0.00080181 1.99287e-05 1.37366e-19)
(0.000256063 -7.66112e-05 5.31015e-19)
(4.16012e-06 2.34189e-05 0)
(1.85005e-05 0.000266145 -1.09386e-18)
(0.000327182 0.000317253 -1.61654e-19)
(-1.87517e-06 -9.63893e-06 1.46494e-19)
(0.000670368 0.000803956 0)
(0.000375852 0.000379524 5.74233e-20)
(0.000827111 3.12431e-05 1.07024e-18)
(0.000799742 1.77019e-06 -2.72502e-18)
(6.67242e-06 1.62968e-05 0)
(0.000658363 -4.23803e-05 -1.12267e-19)
(0.000324648 -0.00015573 1.24271e-18)
(0.00261745 0.000810388 -3.36502e-19)
(8.46013e-06 0.000114736 -6.13076e-19)
(9.08489e-06 0.000142788 1.6194e-18)
(0.00065064 2.60051e-05 -3.89651e-20)
(5.23467e-05 -1.68416e-05 -7.49874e-19)
(0.000812872 4.04809e-05 -3.9027e-19)
(0.000701759 2.79184e-05 -4.10441e-20)
(3.10994e-05 0.000313379 -5.97006e-19)
(0.000507271 4.92581e-05 -4.93753e-19)
(3.99574e-05 -4.53815e-06 1.56091e-19)
(0.000843324 4.31646e-05 -1.08637e-18)
(0.00152906 0.000235414 -1.13639e-18)
(5.30419e-06 5.02703e-05 4.96246e-19)
(0.000813958 3.7856e-05 -5.03324e-19)
(0.000926092 0.00055634 -7.84827e-20)
(0.000150245 0.000777616 0)
(0.000605383 6.163e-05 0)
(0.000278865 3.72328e-05 -1.60891e-18)
(5.79543e-05 5.08499e-05 -1.37359e-18)
(2.62706e-05 1.69023e-05 0)
(0.00424786 0.00740112 -1.01967e-20)
(0.00422593 0.00737267 3.16663e-20)
(0.0044281 0.0075754 -4.9879e-21)
(0.00420539 0.00773337 0)
(0.00419784 0.00759921 5.7725e-19)
(0.0042448 0.00740216 -9.20388e-20)
(0.00420918 0.00804074 4.84495e-19)
(0.00429057 0.00742363 0)
(0.00420765 0.00853347 6.16802e-19)
(0.00432711 0.00745231 2.2395e-19)
(0.000837524 2.47362e-05 -1.37193e-18)
(0.000786726 6.32025e-05 0)
(0.000209809 3.50806e-05 1.27658e-19)
(4.35274e-05 1.16503e-05 8.71515e-20)
(7.13502e-05 3.64387e-05 6.79769e-19)
(9.75735e-05 3.06152e-05 -3.41543e-19)
(8.87978e-05 -3.63301e-06 0)
(4.04464e-05 2.41132e-06 8.18055e-20)
(0.000208231 0.000117924 0)
(0.000158789 2.48517e-05 -5.2414e-20)
(0.00034924 0.000212667 -5.09094e-21)
(5.02284e-05 3.62425e-05 -4.37491e-19)
(8.22387e-05 1.81552e-05 -8.52154e-20)
(8.43192e-05 5.22097e-05 1.31147e-21)
(0.000262969 0.000358044 -6.65973e-19)
(0.000110819 0.000989896 0)
(3.77801e-05 4.58842e-05 3.42935e-19)
(0.000199978 0.00173872 0)
(0.000209227 0.000243749 7.04439e-19)
(2.91855e-05 -2.84381e-06 1.11452e-19)
(0.000496572 0.000158205 -1.72244e-19)
(0.000779462 2.97139e-05 -1.92345e-18)
(3.5047e-05 -1.84944e-06 4.96824e-24)
(0.000138358 1.05174e-05 2.24511e-19)
(0.00024707 7.65003e-05 -8.99013e-20)
(0.000883789 0.000694603 3.34839e-19)
(0.000726467 0.00163469 -9.23304e-21)
(0.000395001 0.00141769 -9.37959e-21)
(0.00103224 0.000548892 0)
(8.74964e-05 -2.22419e-05 1.1183e-18)
(0.000104893 2.84335e-06 -4.42804e-20)
(0.000475806 -0.00026519 -1.13603e-18)
(0.000826549 4.39294e-05 0)
(0.000173588 -2.05089e-05 3.63183e-19)
(0.000306954 0.00129632 0)
(0.00108977 0.00077334 -7.2997e-20)
(0.000826798 2.65732e-05 -1.8648e-19)
(6.30794e-05 -2.45748e-05 -2.99864e-19)
(0.000843686 0.000314082 -2.0797e-20)
(4.22213e-05 -2.10672e-05 -5.99253e-19)
(0.000228289 0.000162999 8.63603e-20)
(0.000232489 0.000302367 -3.44902e-19)
(0.000900523 0.000254241 0)
(0.000828713 5.86747e-05 0)
(0.000267942 0.000118969 1.76788e-19)
(0.000231596 -2.21797e-05 8.37381e-24)
(0.000185319 0.000195456 0)
(0.000308242 0.000643611 -5.55522e-21)
(0.000365416 -3.64169e-05 0)
(0.000383362 0.000598142 0)
(0.000102936 7.11059e-05 -1.34621e-21)
(0.000810565 3.0911e-05 -9.56458e-19)
(0.000805019 1.64489e-05 7.9511e-19)
(0.000122123 4.46284e-05 -1.49802e-19)
(0.000976176 0.000145892 8.50051e-20)
(0.000841669 3.70061e-05 3.33524e-19)
(0.000823263 3.64099e-05 -2.93964e-19)
(0.00103525 0.000421962 0)
(0.000451175 0.000105988 6.24203e-19)
(0.000917045 0.000324438 2.0906e-20)
(0.000595778 0.000149544 0)
(0.00027619 0.000442512 4.09522e-19)
(0.000263616 0.00020613 -8.43908e-20)
(0.00110677 0.000385814 -7.81818e-19)
(0.000644039 0.00010244 -1.79221e-19)
(0.000824533 7.76741e-05 -7.45751e-21)
(0.000846404 2.16984e-05 9.39426e-20)
(4.75957e-05 -8.48555e-05 -1.98055e-18)
(0.000747382 0.000379364 2.19162e-19)
(0.000689765 7.02771e-05 2.30559e-20)
(0.000718711 0.000278813 1.62621e-23)
(0.000742213 0.000462024 -4.0954e-19)
(0.000855165 1.38967e-05 9.06718e-20)
(6.7085e-05 6.98425e-05 0)
(0.000664736 0.000425624 -4.65766e-20)
(0.000181145 8.03355e-05 0)
(0.000374231 0.000501306 -2.64761e-19)
(0.000313332 0.000154711 0)
(0.000688176 0.00020564 3.55092e-19)
(0.000662276 0.000259472 -4.37092e-20)
(7.8665e-05 9.52803e-05 6.18931e-19)
(0.000888542 9.75696e-05 -1.63831e-18)
(5.05898e-05 1.67772e-05 2.57094e-19)
(0.000901289 7.4007e-05 -1.68587e-18)
(0.00085179 9.13018e-05 1.63023e-19)
(0.000815835 3.82418e-05 1.91192e-18)
(0.000822791 3.26325e-05 -1.32794e-19)
(0.000748966 7.02508e-05 0)
(0.000805066 1.89379e-05 8.97521e-19)
(0.000975709 0.000239475 -4.26929e-19)
(0.000792373 0.000101918 -4.8355e-19)
(0.000784678 0.000238563 -8.8088e-20)
(0.000191706 -0.000200296 -2.0745e-18)
(0.000767643 8.26428e-05 8.87191e-19)
(0.000645286 0.000590726 0)
(5.17248e-05 -0.000123056 0)
(0.00123132 0.000477571 4.97127e-19)
(0.00053813 -5.41836e-05 -3.27017e-18)
(0.001357 0.000419225 5.76227e-19)
(0.00125592 0.00072069 -6.38807e-20)
(0.000817794 3.50235e-05 -2.12669e-19)
(0.000845259 6.65038e-05 -1.42777e-18)
(0.000814086 2.75201e-05 1.58667e-18)
(0.000814278 1.95494e-05 9.77678e-20)
(0.000677149 0.000353295 -4.40249e-20)
(9.81897e-05 0.000111123 9.68292e-24)
(0.000768909 -2.6966e-05 2.64867e-19)
(0.000205817 -0.000256615 -7.30846e-19)
(0.000644102 0.000181718 0)
(0.000729739 5.16215e-05 9.89985e-20)
(0.000725154 9.90716e-06 -3.80656e-19)
(0.000398813 0.000160984 3.93228e-20)
(0.000814319 0.000510679 -1.65421e-19)
(0.000143729 6.17623e-05 4.30147e-25)
(0.000822694 0.000412637 0)
(0.000992201 0.00031561 4.15607e-20)
(0.000771905 -5.77067e-05 -6.15826e-19)
(0.000357522 9.01909e-05 4.97657e-19)
(0.000906168 0.000427829 0)
(4.33705e-05 2.59447e-05 1.3366e-19)
(0.000497591 0.000260006 2.13876e-19)
(0.000554481 -0.00017421 -7.09133e-19)
(8.58018e-05 -0.000176753 -1.05576e-18)
(0.000827252 4.22206e-05 -4.86502e-19)
(0.000757749 -5.80418e-05 -1.94573e-19)
(0.000552674 0.00072829 -1.17403e-18)
(0.00085696 4.54635e-05 -6.73848e-20)
(0.00055408 -7.91188e-06 1.28244e-18)
(0.000721951 9.94235e-05 2.27687e-20)
(0.00054732 0.000202391 -1.65627e-19)
(2.21263e-05 -1.79598e-05 -8.7551e-20)
(0.000145493 -6.44819e-05 2.40506e-18)
(1.12122e-05 5.01373e-07 -1.94784e-19)
(0.000846286 0.000120211 3.63601e-19)
(0.000685841 0.000134596 0)
(0.000165898 -0.000117095 -1.04781e-18)
(0.000108419 -2.98931e-05 3.12668e-19)
(8.80671e-05 -4.25272e-05 1.26019e-23)
(0.000813861 0.000105873 -3.19138e-19)
(0.000142337 -2.63801e-05 0)
(0.000599919 0.000237169 0)
(0.000111387 0.000320164 -3.62737e-19)
(0.000871127 0.000101948 2.10763e-18)
(9.1091e-06 6.40245e-07 0)
(0.000891034 5.14602e-05 0)
(3.31202e-05 -2.43131e-05 0)
(0.000815154 4.91088e-05 -4.46624e-21)
(0.000780682 -2.51057e-05 0)
(0.00426099 0.00740787 8.07168e-20)
(0.00436301 0.00748836 1.43651e-19)
(0.00084235 -2.03772e-05 0)
(0.000800862 -3.05514e-05 8.11533e-19)
(0.000151153 0.000112733 1.49158e-19)
(0.000865157 6.64767e-05 8.08172e-19)
(0.00012577 9.02336e-05 2.34311e-20)
(0.000795342 -1.78187e-05 6.2393e-19)
(2.95202e-05 7.43205e-06 0)
(2.08394e-05 -1.0778e-05 -4.48303e-20)
(0.000909512 4.67204e-05 -4.8635e-19)
(2.26631e-05 -2.70675e-05 -6.6954e-19)
(0.000772987 0.000127989 -4.23067e-20)
(0.000169428 0.000150418 -1.88036e-19)
(0.000813418 3.24074e-05 0)
(0.00468253 0.00815355 9.00834e-22)
(0.000196443 0.000791963 3.33354e-19)
(9.28376e-05 -6.97074e-05 -9.14172e-19)
(4.70508e-05 -3.43734e-05 -1.16834e-18)
(0.000581416 1.29689e-05 1.89546e-20)
(0.000586661 0.000402849 0)
(0.000426832 0.000445956 -2.56248e-19)
(6.11889e-05 -6.49391e-05 1.1833e-18)
(0.000544132 -1.8382e-06 7.67499e-20)
(3.53856e-05 7.64111e-07 4.06934e-19)
(0.000729261 -3.96415e-05 1.17111e-18)
(0.000812911 3.22602e-05 -6.062e-19)
(4.48784e-05 -5.3257e-05 1.70884e-18)
(0.000840865 -4.57315e-05 -6.36682e-24)
(0.000557699 5.97917e-06 -3.74769e-20)
(0.000879854 7.2258e-05 0)
(0.000847253 5.41059e-05 0)
(0.00591505 0.00724363 2.5996e-19)
(1.13548e-05 -3.0909e-06 -1.19552e-19)
(8.74276e-05 -0.000118578 7.72766e-19)
(0.000741721 0.000113921 -6.96151e-19)
(1.38679e-05 3.05998e-07 2.01476e-19)
(0.000659251 -3.56464e-05 -7.23498e-19)
(0.000758779 3.5512e-05 1.55739e-18)
(0.000718609 0.000156624 -3.553e-19)
(0.000807247 -1.13598e-05 3.60721e-19)
(5.96501e-05 -3.7434e-05 1.11555e-18)
(0.000801872 6.53005e-06 -3.22559e-19)
(0.000876718 3.45468e-05 0)
(0.00055338 0.000300904 4.20865e-20)
(0.000869652 4.86735e-05 -9.47427e-19)
(1.21513e-05 2.96103e-06 9.11242e-19)
(0.000863177 3.97464e-05 9.65909e-19)
(0.00086455 2.84733e-05 -9.64189e-19)
(0.000768813 2.14368e-06 -5.68929e-19)
(0.000555464 -8.5706e-05 -5.25422e-19)
(0.00433003 0.0074545 2.47587e-19)
(0.004222 0.00752815 -2.78891e-19)
(0.00422028 0.00758576 2.66807e-19)
(0.00425658 0.00741162 1.98013e-19)
(0.000845148 -3.91404e-05 1.44212e-19)
(0.00447702 0.00751516 0)
(0.00440442 0.00751902 -3.86957e-19)
(1.98465e-05 -1.51411e-07 -9.97849e-19)
(0.00416995 0.00746836 -6.33762e-20)
(0.00414546 0.00743164 -2.2155e-19)
(0.0060292 0.0106048 0)
(0.00654021 0.0111867 3.71566e-20)
(0.00600913 0.0105745 0)
(0.00655591 0.0112103 1.30969e-19)
(0.00599656 0.0105986 2.69673e-19)
(0.00659261 0.0112272 1.24723e-20)
(0.00593547 0.0106112 -7.76769e-19)
(0.00662288 0.0111462 8.16423e-21)
(0.00390341 0.0091972 -1.90797e-19)
(0.00418614 0.00748755 3.87513e-21)
(0.00423696 0.00755101 7.93725e-20)
(0.00414996 0.00743394 4.12108e-20)
(0.000897897 0.000197214 4.46557e-20)
(6.23863e-06 8.60575e-07 0)
(0.000730698 -9.78826e-05 0)
(0.000657023 5.80736e-05 0)
(0.0024465 0.00111902 4.23441e-21)
(0.000759003 -3.0168e-05 1.72507e-19)
(3.41871e-05 4.02747e-06 4.53883e-20)
(4.69893e-06 -2.03388e-05 1.6523e-18)
(0.000864546 2.87101e-06 0)
(2.35696e-05 1.01555e-05 -1.91654e-19)
(0.000139012 0.000214267 0)
(1.00086e-05 -7.68241e-07 0)
(7.65973e-06 -8.22786e-07 0)
(0.000840023 0.000150192 1.1373e-20)
(0.000811012 -1.78878e-05 1.79537e-19)
(3.86981e-05 0.000254076 -8.80276e-24)
(0.000156124 0.000265346 -1.84134e-18)
(0.000614223 0.000325556 -8.56706e-20)
(0.000904685 0.000115187 6.01886e-19)
(0.000587847 -0.000141927 6.74706e-19)
(0.000358075 0.00111687 0)
(0.000483438 0.000575343 2.71448e-18)
(8.78356e-05 0.000136427 -1.80253e-18)
(1.33631e-05 -3.07086e-07 0)
(0.000822886 -6.43806e-05 3.64041e-20)
(1.33279e-05 3.03638e-05 1.64388e-18)
(0.000893087 3.63072e-05 2.71019e-19)
(-3.19403e-05 8.72405e-05 3.81032e-18)
(0.000925005 4.22872e-05 -2.68888e-19)
(0.00133251 0.000156655 7.47201e-19)
(2.74364e-05 -9.26922e-06 8.25389e-20)
(2.92239e-05 1.96012e-06 -8.58782e-19)
(5.07073e-05 0.000132731 0)
(0.000921988 9.07481e-05 5.98175e-19)
(0.000500561 0.000366162 2.37068e-19)
(0.000605818 1.71525e-05 -3.88893e-20)
(0.000790469 7.6943e-06 2.57225e-19)
(0.000727462 -0.000131492 0)
(0.0063203 0.0108955 -1.68156e-19)
(0.00637866 0.0109729 4.0591e-19)
(0.00616003 0.0107298 -6.18485e-19)
(0.00650122 0.011132 -8.10014e-20)
(3.11374e-05 0.000110494 8.00257e-19)
(0.000931695 6.20933e-05 1.4426e-22)
(0.00641128 0.0110054 -3.86532e-19)
(0.00628135 0.0108453 5.4838e-19)
(0.00608007 0.0106716 -4.16811e-19)
(0.00652174 0.0111644 -6.81603e-20)
(7.8502e-05 0.00048746 -2.01764e-20)
(4.09091e-05 -0.0001879 -7.92637e-19)
(0.000633213 -1.92587e-05 -7.66765e-19)
(0.000733317 0.000219388 0)
(0.000800306 2.14121e-07 0)
(0.00019031 0.000384314 3.36198e-19)
(0.000604469 0.000510867 -5.41697e-19)
(4.6907e-06 -8.31655e-07 1.78327e-19)
(0.000200323 0.000466061 -7.38181e-19)
(0.00102482 0.000980616 -1.12669e-19)
(0.000756856 0.000166754 0)
(0.000797888 0.000184807 1.30972e-19)
(0.00634837 0.0058836 1.13203e-18)
(0.000735205 0.00113118 8.26456e-20)
(3.4559e-05 3.33607e-05 -7.44415e-20)
(0.000808097 1.12483e-05 0)
(0.000869443 2.16648e-05 -3.5678e-20)
(2.78809e-05 1.83865e-06 -1.96667e-19)
(2.43914e-05 3.15111e-06 1.92932e-19)
(0.000834996 1.15717e-05 5.37006e-19)
(0.000988662 0.000114663 6.57979e-19)
(0.000530968 4.81037e-05 0)
(0.000220599 -0.000260526 -3.98173e-19)
(0.000921913 0.000142985 3.89437e-19)
(9.50707e-07 -4.30918e-05 2.02916e-19)
(0.00145475 0.000443886 -2.58005e-18)
(0.000554958 -1.45032e-05 0)
(0.000802947 0.000141879 3.75328e-19)
(9.66354e-05 0.000384759 0)
(0.00118895 0.0081615 4.62031e-19)
(0.000498714 0.000496752 -1.22418e-18)
(0.000540937 0.00101838 -1.83703e-19)
(0.000890117 1.26821e-05 -1.46004e-19)
(1.02261e-05 2.1405e-05 0)
(0.000964578 7.86305e-05 6.11372e-19)
(0.00410606 0.00739491 8.14507e-20)
(0.00417078 0.00747288 4.73221e-20)
(0.00450079 0.00751784 4.54102e-19)
(0.00444598 0.00754364 -3.29074e-19)
(0.00647513 0.0111089 8.10786e-20)
(0.00391479 0.00714594 -9.48769e-22)
(0.00550747 0.00780056 -5.6477e-19)
(0.00409781 0.00737148 5.21929e-21)
(0.00518885 0.00786038 5.11706e-19)
(0.00407958 0.00733984 -4.87449e-20)
(0.00495423 0.00771994 0)
(0.0040848 0.0073641 -8.569e-20)
(0.00474311 0.0075908 4.92544e-19)
(0.00409804 0.00737569 8.75412e-20)
(0.00457586 0.00753041 0)
(0.00428452 0.00742209 1.39773e-19)
(0.00423846 0.00759728 5.80372e-19)
(0.00446847 0.00752915 -5.54357e-19)
(0.00438866 0.00750645 3.71377e-19)
(0.00422712 0.00752409 3.22902e-19)
(0.00643046 0.0110422 -4.97652e-21)
(0.00411749 0.00740101 3.1168e-20)
(0.00645861 0.0110721 0)
(1.96532e-05 4.19421e-06 -1.89792e-19)
(0.00200216 0.00654728 2.28159e-19)
(0.000838255 -6.146e-05 1.09607e-19)
(0.000851569 2.29028e-07 0)
(6.02217e-07 3.44944e-07 -3.98967e-19)
(-3.64872e-05 -7.12504e-05 6.90977e-19)
(2.28689e-05 5.09944e-05 2.0883e-18)
(0.000840625 0.000188262 -9.00345e-20)
(0.000801685 8.28089e-06 7.06132e-19)
(-2.34563e-08 2.3707e-07 3.09873e-19)
(1.23128e-05 -2.68553e-05 -1.84492e-18)
(0.000763603 2.65502e-05 1.63094e-19)
(0.000874427 0.000126064 -3.07869e-20)
(0.000801089 -6.87131e-06 1.48077e-19)
(0.000436629 0.000678581 0)
(5.531e-07 -0.00012974 1.15095e-18)
(0.000876667 -1.65228e-06 1.52476e-19)
(1.75292e-05 2.04865e-05 0)
(0.000120459 0.000552505 -6.31094e-19)
(0.000615019 0.000583306 1.31755e-18)
(0.000335133 0.000757914 0)
(0.00080217 -1.41161e-05 0)
(0.000801845 3.12049e-06 1.17683e-18)
(1.45398e-05 4.3635e-05 -3.51376e-18)
(1.34408e-05 5.32136e-06 3.7349e-19)
(0.000116518 0.000135303 0)
(3.24442e-05 -3.78661e-05 0)
(5.83025e-05 0.000105018 2.00931e-19)
(0.000944081 0.000190545 3.50299e-19)
(0.000801441 1.50448e-05 -1.39065e-18)
(2.02321e-05 2.88531e-05 0)
(0.000406526 2.29403e-06 -6.04558e-20)
(0.0007995 3.52976e-05 -1.56296e-19)
(0.000851501 4.97112e-05 1.06515e-18)
(0.000252301 0.000542514 6.3205e-19)
(0.000885525 0.000158208 0)
(1.22643e-05 -1.86419e-05 5.38414e-19)
(1.18229e-06 -1.75508e-06 -3.19848e-19)
(0.000939641 3.51932e-05 0)
(0.00104928 0.00227114 0)
(0.000900788 3.52338e-06 0)
(0.00100874 0.000209187 4.27011e-19)
(0.000818912 -3.73615e-05 -2.84172e-19)
(0.000944521 0.000114302 -6.8451e-19)
(0.000801236 3.71347e-06 0)
(3.97585e-05 6.20795e-05 -1.71507e-19)
(0.000174765 0.000321621 1.08082e-18)
(0.00080113 1.37422e-05 -2.54646e-23)
(0.00110933 0.000208933 -6.68455e-19)
(0.00108788 0.000129624 0)
(1.74103e-06 3.46851e-06 2.50938e-19)
(1.34174e-05 -1.18261e-05 -1.94244e-19)
(0.000550342 4.87671e-05 6.94782e-21)
(-1.01712e-05 -5.64714e-05 0)
(0.00107801 0.000257426 9.49592e-19)
(0.00502878 0.00974821 -2.82863e-19)
(0.00312159 0.00961666 1.27233e-18)
(1.22141e-05 -8.97727e-05 -1.9125e-19)
(3.339e-05 -6.93717e-05 1.85874e-18)
(0.00119204 0.000259521 1.67283e-19)
(0.00133194 0.00107545 2.34023e-19)
(0.000810537 3.53514e-06 -7.36724e-19)
(0.000200271 0.000948491 -2.38184e-19)
(0.000819618 0.000946797 -2.18523e-19)
(0.000800382 -1.95903e-06 0)
(8.15063e-05 0.000608085 0)
(9.42279e-05 0.00027558 -3.50853e-23)
(0.000720332 -4.81209e-05 -1.67273e-23)
(0.000827629 6.95747e-05 1.52549e-19)
(0.00263288 0.00206788 -1.23116e-18)
(0.0017608 0.00923809 -1.17182e-19)
(0.000834013 7.30402e-05 4.92008e-19)
(0.00631765 0.00405348 -1.76212e-19)
(0.00672081 0.011557 -1.36616e-20)
(0.00473403 0.0078437 4.93574e-21)
(0.000806081 1.35859e-05 -2.16565e-18)
(0.000844023 -2.99923e-07 7.99027e-24)
(4.76496e-06 -4.97027e-06 -3.47892e-19)
(4.47905e-05 8.19889e-05 -3.49161e-19)
(6.13563e-05 0.00025872 8.75032e-19)
(8.43233e-06 1.31971e-05 4.90235e-19)
(8.9801e-05 0.000221348 3.69652e-19)
(0.000818962 1.42674e-05 0)
(0.00534821 0.00949236 1.94915e-20)
(0.00154873 0.00063946 -2.61129e-20)
(0.000819127 4.08715e-05 3.60048e-19)
(1.23155e-05 -7.03105e-05 0)
(0.00184872 0.000749998 5.45873e-19)
(6.90162e-06 5.5415e-06 -2.70061e-19)
(3.00709e-05 2.44422e-05 9.71483e-20)
(0.0013362 0.00139874 6.36516e-19)
(0.000739851 4.98146e-05 1.8304e-19)
(1.40749e-06 -6.2469e-07 -1.7014e-19)
(0.00206564 0.0015635 -1.05559e-18)
(0.000126832 0.000169991 -8.18515e-19)
(0.00392011 0.00848866 -1.09074e-18)
(2.90262e-06 8.76536e-07 8.81123e-20)
(9.28949e-05 -3.53134e-05 -1.25812e-18)
(3.29067e-05 -5.28068e-05 4.05496e-20)
(0.00153302 0.000988752 0)
(0.00104392 0.00014196 -3.99798e-22)
(0.000455594 0.000845585 -4.01959e-20)
(0.000803526 2.75841e-05 -2.33995e-19)
(8.68717e-05 0.000176425 7.3584e-19)
(1.73906e-05 -5.16579e-05 4.03849e-19)
(1.58013e-05 1.26623e-05 -9.46775e-20)
(2.80074e-05 8.3644e-05 -3.20183e-19)
(0.000215897 -0.00015907 -5.45639e-19)
(0.00325144 0.00346809 2.89563e-21)
)
;

boundaryField
{
    back
    {
        type            empty;
    }
    ingreso
    {
        type            fixedValue;
        value           uniform (0.0008 0 0);
    }
    salida
    {
        type            zeroGradient;
    }
    front
    {
        type            empty;
    }
    defaultFaces
    {
        type            noSlip;
    }
}


// ************************************************************************* //
