/*--------------------------------*- C++ -*----------------------------------*\
  =========                 |
  \\      /  F ield         | OpenFOAM: The Open Source CFD Toolbox
   \\    /   O peration     | Website:  https://openfoam.org
    \\  /    A nd           | Version:  7
     \\/     M anipulation  |
\*---------------------------------------------------------------------------*/
FoamFile
{
    version     2.0;
    format      ascii;
    class       volScalarField;
    location    "1";
    object      p;
}
// * * * * * * * * * * * * * * * * * * * * * * * * * * * * * * * * * * * * * //

dimensions      [0 2 -2 0 0 0 0];

internalField   nonuniform List<scalar> 
591
(
0.000124232
0.000124072
0.000124881
0.000123712
0.000123844
0.000125875
0.00012439
0.000124702
0.000113221
0.000123963
0.000124545
0.000122885
0.000125539
0.000116518
0.000124537
0.000124214
0.000123752
0.000124651
0.00012205
0.000124292
0.000124124
6.72389e-06
0.00012439
0.000123848
0.000124177
0.000124189
0.000123863
0.000123777
0.000123534
0.000124311
0.000124207
0.000124164
0.000124211
0.000124234
0.000124172
0.000123867
0.000124197
0.0001243
0.000124298
0.000124139
0.000123856
0.00012419
0.000124039
0.000124619
0.000124187
0.000124234
0.000127416
0.000124235
0.000124777
0.000124246
0.000124008
0.000124015
3.79621e-05
4.48757e-05
5.44219e-05
0.000124534
0.000124256
0.000124084
0.000124232
0.000124044
0.000123668
0.000123886
0.000123984
0.000126249
0.000120478
0.000124131
0.000124622
0.000124231
0.000123908
0.000124506
0.000123814
0.00012427
0.000124085
0.000124185
0.000124201
0.000124179
0.000124242
0.000124254
0.000123767
0.000123685
0.00012367
0.000124273
0.000124238
0.000123969
0.000124254
0.000124304
0.000123835
0.000124199
0.000124254
0.000123596
0.000124219
0.000123948
0.000123832
0.000124034
0.000124277
0.00012389
0.000123519
0.000123037
0.000123341
0.000124209
0.00012434
0.000124415
0.000124177
0.000123737
0.000124215
0.000124502
0.000124281
0.00012394
0.000124539
0.000124436
0.000125058
0.000123964
0.000123662
0.000124198
0.00012422
0.000125211
0.000124032
0.000124287
0.0001235
0.000123979
0.000124241
0.000126066
0.000124406
0.000123637
0.00012416
0.000118937
0.000124292
0.000124548
0.000123624
0.000124128
0.00012405
0.000123406
0.000125247
0.000123872
0.000124228
0.000124337
0.000124237
0.00012418
0.000124067
0.000123182
0.00012416
0.000123745
0.000124111
0.000124284
0.000124285
2.16714e-05
1.50001e-05
1.46147e-05
3.54119e-05
3.63611e-05
1.73563e-05
3.64557e-05
3.37931e-05
3.79082e-05
3.21044e-05
0.000124081
0.000124293
0.000124214
0.000124254
0.00012425
0.000124215
0.000124213
0.000124241
0.000124178
0.000124158
0.000124065
0.000124285
0.000124227
0.000124242
0.000124036
0.000123941
0.000124332
0.000123676
0.00012415
0.00012421
0.000123909
0.000123919
0.000124208
0.000124177
0.000124142
0.000123181
0.000122882
0.000123433
0.000122907
0.000124211
0.000124195
0.000124277
0.000124011
0.00012404
0.000123768
0.000122853
0.00012423
0.000124278
0.000123542
0.000124142
0.000124149
0.000124104
0.000123324
0.000123925
0.000124097
0.000124355
0.000124187
0.000123774
0.000123982
0.000124124
0.000124229
0.000123928
0.00012432
0.000124205
0.000123364
0.000124083
0.000124241
0.000123049
0.000123973
0.00012329
0.000123798
0.000123981
0.00012413
0.000122925
0.00012373
0.000124511
0.000124233
0.000124156
0.000123634
0.000123661
0.000123762
0.000123599
0.00012393
0.000124275
0.000123695
0.000124207
0.000123983
0.000124128
0.000123828
0.000123807
0.000124243
0.000123264
0.000124255
0.000123667
0.000123313
0.000124234
0.000124361
0.000123538
0.000124435
0.000123248
0.000124301
0.000123743
0.000124151
0.000124113
0.000123264
0.00012415
0.000122475
0.00012509
0.000122221
0.000122385
0.000124167
0.000123637
0.000124582
0.000124768
0.00012373
0.000124249
0.000123595
0.000124219
0.000123799
0.000123637
0.0001237
0.000124042
0.000123419
0.000124201
0.000123481
0.000123184
0.000123758
0.000124216
0.000123241
0.000124277
0.000123909
0.000124022
0.000124238
0.000124271
0.000123636
0.000123683
0.000124261
0.000124787
0.000123709
0.000123859
0.000124182
0.000124131
0.000124284
0.000123751
0.000123773
0.000124156
0.000124197
0.000124211
0.000124161
0.00012417
0.00012382
0.000124297
0.000122764
0.000124287
0.000123836
0.000124149
0.00012438
0.000123909
2.46404e-05
3.73341e-05
0.000123793
0.00012397
0.000124235
0.000123554
0.000124229
0.000123866
0.000124268
0.000124188
0.000123269
0.000124165
0.000124049
0.000124213
0.000124054
1.36506e-06
0.000123777
0.000124179
0.000124133
0.000123818
0.0001238
0.00012392
0.000124217
0.00012393
0.000124257
0.000123732
0.000124358
0.000124078
0.000123737
0.000123943
0.00012415
0.000124222
5.50075e-05
0.000124138
0.000124177
0.000123929
0.000124291
0.000123715
0.000123847
0.000123861
0.000123945
0.000124203
0.000126156
0.000123563
0.000123845
0.000123779
0.000124299
0.000123877
0.000124172
0.000124009
0.000123813
3.12647e-05
3.06818e-05
3.35288e-05
2.28124e-05
0.000123564
4.11242e-05
3.56936e-05
0.000124219
2.00933e-05
1.96486e-05
4.69045e-05
2.21725e-05
4.95462e-05
1.90636e-05
5.26336e-05
1.86116e-05
5.40524e-05
1.86528e-05
3.65909e-05
2.43821e-05
3.05492e-05
1.82612e-05
0.00012333
0.000124292
0.0001237
0.000123207
0.000119048
0.000125873
0.000124255
0.000124204
0.000123731
0.000124282
0.000124226
0.000124176
0.000124182
0.000123656
0.000123478
0.000124683
0.000124178
0.000123797
0.000123235
0.000124477
0.000123673
0.00012433
0.000124326
0.000124157
0.000123745
0.000124346
0.000123661
0.000124245
0.000123808
0.000122144
0.000124197
0.000124222
0.000124403
0.000123749
0.00012388
0.000123759
0.000123774
0.000123511
3.80916e-05
3.85388e-05
4.36944e-05
2.54303e-05
0.000124413
0.00012387
3.27356e-05
4.41712e-05
4.48941e-05
2.35782e-05
0.000124741
0.000124219
0.000123904
0.000123812
0.000126309
0.000124026
0.000123623
0.000124185
0.000123929
0.00012283
0.000123897
0.000123828
6.26014e-05
0.00012332
0.000124297
0.000124474
0.000124018
0.000124242
0.000124266
0.000124202
0.000123581
0.00012322
0.000124207
0.000123194
0.000124169
0.000122668
0.00012384
0.000123968
0.000124017
9.9744e-05
0.000123825
0.000123571
0.000123677
0.000124325
0.00012384
1.37724e-05
2.52123e-05
4.25167e-05
4.20234e-05
3.00492e-05
3.94953e-06
5.19787e-05
6.49833e-06
5.14428e-05
5.70044e-06
5.02426e-05
8.11165e-06
4.79782e-05
1.0495e-05
4.45903e-05
2.94633e-05
2.87851e-05
4.24709e-05
3.61227e-05
2.38701e-05
3.26801e-05
1.61795e-05
3.40856e-05
0.00012428
0.000107719
0.000123633
0.000123823
0.000124291
0.000124152
0.000124314
0.000123621
0.00012616
0.000124195
0.000124204
0.000125948
0.000123248
0.000126024
0.000123918
0.000124169
0.000123714
0.000124301
0.000123776
0.000123489
0.000123798
0.000125892
0.000126224
0.000124301
0.000124291
0.000124262
0.000124143
0.000124316
0.000123256
0.000124258
0.000124306
0.00012277
0.000126185
0.000124238
0.000123865
0.000123301
0.000124196
0.000124202
0.000122374
0.000121279
0.000121668
0.000123302
0.000123705
0.000123436
0.000126527
0.000124328
0.000124144
0.000124977
0.00012333
0.000123504
0.000124288
0.000124188
0.000123617
0.000124154
0.000123184
5.97472e-05
3.7952e-05
0.000124153
0.000124143
0.000123114
0.000122281
0.000124393
0.000123767
0.000123234
0.000126604
0.000124427
0.0001242
0.00012374
0.000124341
0.000115792
5.10781e-05
0.000124558
7.93472e-05
1.48759e-05
-1.81348e-07
0.000124419
0.000124039
0.000124185
0.000124332
0.000124668
0.000124307
0.000124306
0.000124271
1.73841e-06
0.000122024
0.000124021
0.000124152
0.000120185
0.000124298
0.00012429
0.000122078
0.000123953
0.000124188
0.00012044
0.000124246
7.86393e-05
0.000124294
0.000123861
0.000124125
0.00012136
0.00012345
0.000123733
0.000124339
0.000124274
0.000124159
0.000124295
0.00012442
0.000124138
0.000112228
)
;

boundaryField
{
    back
    {
        type            empty;
    }
    ingreso
    {
        type            zeroGradient;
    }
    salida
    {
        type            fixedValue;
        value           uniform 0;
    }
    front
    {
        type            empty;
    }
    defaultFaces
    {
        type            zeroGradient;
    }
}


// ************************************************************************* //
