/*--------------------------------*- C++ -*----------------------------------*\
  =========                 |
  \\      /  F ield         | OpenFOAM: The Open Source CFD Toolbox
   \\    /   O peration     | Website:  https://openfoam.org
    \\  /    A nd           | Version:  7
     \\/     M anipulation  |
\*---------------------------------------------------------------------------*/
FoamFile
{
    version     2.0;
    format      ascii;
    class       surfaceScalarField;
    location    "1";
    object      phi;
}
// * * * * * * * * * * * * * * * * * * * * * * * * * * * * * * * * * * * * * //

dimensions      [0 3 -1 0 0 0 0];

internalField   nonuniform List<scalar> 
1111
(
5.85151e-09
1.33776e-08
-1.50804e-08
-4.14863e-09
5.86151e-09
-1.13495e-08
1.13395e-08
-1.40602e-08
4.4392e-09
9.984e-09
-3.63004e-10
1.97073e-10
-1.9286e-10
-1.38509e-08
1.38467e-08
-1.39319e-08
1.35697e-08
5.59235e-10
-4.43678e-10
1.49508e-08
9.21446e-10
-2.73711e-09
8.06692e-09
-1.06869e-08
5.35712e-09
-6.5434e-09
-1.18598e-08
1.21366e-08
6.26656e-09
-4.89301e-08
-2.58875e-08
7.48176e-08
-7.78036e-09
7.18507e-09
6.4568e-09
3.80608e-09
4.11383e-10
-3.90584e-09
-3.11623e-10
1.47662e-08
-1.58218e-08
-2.21849e-08
2.32405e-08
-8.97713e-09
-8.39408e-09
8.78137e-09
8.58984e-09
-3.56438e-08
1.65459e-08
-3.38786e-08
5.29765e-08
9.34892e-09
-1.99017e-09
-1.39021e-08
-4.85644e-09
4.25142e-09
-2.68804e-09
3.29306e-09
-3.68348e-09
1.27935e-08
1.95266e-09
-1.10627e-08
8.85024e-09
-2.2106e-09
-1.46803e-08
8.04062e-09
3.87419e-08
-3.30023e-08
-5.73964e-09
-1.87611e-08
-5.69745e-11
1.77006e-08
1.1175e-09
-4.72599e-10
3.86171e-09
-1.76791e-08
1.429e-08
-7.33309e-08
-2.33392e-09
7.56648e-08
2.49712e-10
-1.50454e-09
-4.52221e-10
1.70705e-09
-1.06095e-09
-1.33435e-08
-3.04378e-10
-4.51741e-10
4.17437e-10
3.38683e-10
-9.98994e-09
-7.91142e-09
1.21548e-08
5.74657e-09
1.08322e-09
-2.38053e-09
-8.31293e-09
9.61024e-09
7.48328e-09
1.29631e-09
-8.19216e-09
-5.87429e-10
-2.62325e-09
-7.5371e-09
1.02018e-08
-4.14057e-11
1.07587e-08
5.27981e-10
-2.43646e-09
-1.18973e-09
1.15662e-09
1.81241e-10
-1.48126e-10
-5.15281e-10
1.05501e-09
7.19463e-10
-1.25919e-09
-7.79521e-10
-4.71712e-11
8.11416e-10
1.52756e-11
8.67803e-11
-1.29502e-09
8.84458e-11
1.11979e-09
2.5944e-11
-1.1289e-09
9.41947e-10
-1.78523e-08
-1.85074e-09
-6.87074e-10
9.19287e-11
-1.84375e-10
1.29597e-08
-1.28815e-08
3.78359e-09
-5.20075e-10
7.22139e-10
5.1067e-10
-7.12734e-10
-1.32511e-09
-2.72446e-09
2.20342e-09
1.84615e-09
-1.34182e-09
8.05595e-09
-9.45124e-09
-5.392e-10
-2.65293e-10
1.17422e-10
-8.53679e-09
9.51713e-09
-8.76071e-09
1.15217e-08
-1.63332e-08
5.39856e-09
-5.87109e-10
1.46186e-10
-2.8074e-10
-4.04644e-10
3.5678e-10
1.04623e-09
-2.46397e-10
-5.74088e-08
6.78642e-08
-1.04553e-08
1.27662e-09
-4.90982e-10
-1.4828e-09
6.97157e-10
5.52105e-10
1.03214e-08
-1.33167e-08
2.44322e-09
4.78708e-11
6.00159e-09
-6.88358e-09
8.34118e-10
-6.2677e-09
5.85087e-09
5.35512e-09
-4.9383e-09
-6.51302e-09
-2.75103e-09
2.37239e-09
6.89165e-09
1.88275e-11
-7.28224e-08
7.2885e-08
-8.14457e-11
7.56442e-10
-7.33742e-08
7.28011e-08
-1.83355e-10
7.4921e-08
8.71111e-10
-1.28239e-09
-7.45098e-08
-3.61803e-09
3.16541e-10
9.54795e-10
1.02848e-09
-7.06651e-10
4.18174e-09
-1.9485e-09
3.10491e-09
-5.33815e-09
-1.2951e-09
1.1609e-09
-1.4991e-08
6.66081e-09
8.66047e-09
1.21859e-09
-9.29505e-09
-5.84011e-10
-5.64683e-09
1.19178e-08
1.42483e-09
-7.69578e-09
1.37644e-08
-3.6959e-09
3.14259e-09
-1.32111e-08
1.52468e-08
1.08304e-09
-9.0107e-10
6.48811e-10
-2.01237e-08
-7.77903e-09
2.72539e-08
1.31522e-08
-7.92457e-09
-2.08788e-09
7.34566e-09
-1.09046e-08
-2.26789e-10
4.3977e-10
-1.69578e-09
-3.70286e-08
-2.03802e-08
7.62628e-09
-9.65088e-11
3.99193e-09
-6.63973e-09
1.00535e-08
6.10337e-09
-8.09528e-10
4.72475e-10
6.60601e-10
-3.23548e-10
5.97283e-09
-4.51492e-09
3.48961e-09
-4.94751e-09
-8.15193e-10
-8.36327e-10
3.56499e-10
9.67112e-10
-9.25838e-10
-3.45624e-10
-1.42694e-09
1.25729e-09
-1.67697e-08
2.32486e-09
1.27929e-09
1.31655e-08
3.69862e-10
-9.49966e-10
-2.29423e-10
-3.24507e-09
-1.43556e-08
8.3102e-10
5.60149e-09
1.13439e-08
-5.2381e-09
-1.17073e-08
1.62031e-08
6.04478e-10
-1.57113e-08
-1.09631e-09
-8.96911e-10
6.43326e-10
7.26061e-10
-1.38156e-09
7.57628e-10
6.23931e-10
-6.81189e-09
-4.00886e-09
4.55306e-09
-5.93457e-10
8.31863e-10
-2.38407e-10
1.39896e-09
-1.4634e-08
-2.98601e-10
8.11251e-09
-9.15573e-09
-1.34065e-09
-1.72718e-09
1.2298e-08
4.37273e-09
-4.16237e-09
-1.25084e-08
4.53249e-10
6.80695e-09
-7.45936e-09
6.50328e-09
-2.19579e-09
-8.0171e-09
7.44013e-09
2.77276e-09
-1.60665e-09
4.63489e-10
-1.32124e-08
-3.77824e-10
-2.15633e-10
-9.40292e-10
1.58068e-09
-7.1534e-09
8.8486e-10
1.69762e-08
-1.65791e-09
-1.70333e-08
1.8236e-08
-1.20274e-09
1.16498e-08
1.3568e-08
-1.50273e-08
-1.01904e-08
-1.14122e-09
1.88824e-09
-7.47027e-10
2.22695e-09
-3.00316e-09
7.76212e-10
4.32826e-09
-6.64453e-09
2.31627e-09
2.51854e-09
-2.13795e-09
-3.80588e-10
-1.39442e-08
1.14886e-10
1.38293e-08
3.42927e-09
-9.10735e-10
8.77136e-09
-1.45551e-08
6.27083e-09
-7.16325e-09
2.88844e-10
4.02895e-09
-5.11717e-10
-3.84066e-09
4.12951e-09
-9.25645e-09
1.07313e-08
-1.47489e-09
-1.19409e-09
4.01737e-09
1.35846e-09
1.66137e-08
-1.45952e-08
-1.46645e-09
-4.85653e-09
4.98909e-09
-2.08105e-09
-3.09357e-10
8.17324e-09
-7.80066e-09
-3.72578e-10
7.02318e-09
4.30476e-09
4.99768e-10
-1.54993e-08
1.00732e-08
1.70759e-08
5.69347e-09
8.13667e-09
8.19246e-09
-5.40811e-09
3.32632e-10
-1.42769e-08
1.81835e-09
-6.73297e-10
-1.01882e-08
4.53714e-09
-4.07628e-10
1.61484e-08
-1.55439e-08
1.21813e-11
-1.32689e-09
-1.3098e-08
6.86818e-09
1.05441e-09
-8.27459e-11
-8.81389e-09
5.53556e-09
-3.23534e-08
-1.19873e-08
-2.25497e-09
1.14422e-09
1.35264e-08
1.07961e-08
-1.05718e-08
-1.37507e-08
1.80452e-08
-3.03207e-09
-1.50131e-08
1.93968e-09
3.71388e-09
-1.80306e-09
-1.07403e-09
-1.14622e-09
1.46954e-09
7.50712e-10
-3.58462e-10
5.14534e-10
5.0453e-10
7.1126e-08
-7.08872e-08
-2.38865e-10
7.29081e-08
-7.18179e-08
-1.09019e-09
-4.22816e-10
7.70952e-08
-7.72777e-08
1.82507e-10
7.39612e-08
3.13398e-09
-6.91852e-10
-7.49606e-08
-2.31711e-09
-7.06147e-08
7.00427e-08
5.7199e-10
-1.91134e-09
-7.30493e-08
-7.06118e-08
-2.97004e-12
1.18564e-08
-1.39587e-09
2.04806e-09
-3.71162e-09
3.05943e-09
5.19189e-10
-1.4057e-09
1.28647e-09
-9.7147e-10
1.59891e-09
-1.89902e-09
1.27158e-09
1.68001e-09
-1.84791e-09
6.0767e-10
-1.41947e-10
-3.28021e-09
3.20617e-09
-2.51426e-09
2.58831e-09
-1.09139e-09
-3.0405e-09
2.73602e-09
-4.03674e-09
-5.41648e-09
7.41088e-10
-8.58822e-10
1.59856e-09
1.28681e-09
-6.59031e-09
7.91521e-09
2.97987e-09
2.22479e-08
-4.20279e-09
-9.06585e-10
3.95823e-10
1.25185e-09
-9.40051e-09
-2.76281e-08
5.48578e-09
-4.54878e-09
-3.02158e-09
2.08458e-09
1.97606e-10
-3.78972e-11
6.51709e-10
-3.02334e-09
3.65157e-09
8.26296e-09
1.08197e-09
-7.99856e-10
2.29804e-09
-2.58957e-09
2.48173e-09
1.42598e-08
1.28346e-08
-2.63471e-08
3.17128e-08
5.38019e-09
-2.16424e-08
-1.00849e-08
1.77619e-08
-1.72881e-08
1.03223e-08
-4.96923e-10
1.93063e-10
-1.54405e-09
-2.0912e-09
-1.26437e-09
2.44772e-09
1.42731e-08
-5.35423e-10
-1.32742e-08
5.25592e-10
-3.16621e-09
-3.99881e-10
1.50127e-08
1.70091e-08
1.31031e-08
7.25139e-10
-1.5681e-09
-1.22601e-08
-2.18053e-09
5.92829e-09
1.19712e-08
-1.00823e-09
-1.44756e-09
-3.52182e-09
2.74143e-09
3.98655e-09
2.38508e-09
1.37167e-08
4.16763e-09
-1.35116e-08
1.67342e-08
-1.63009e-09
2.97729e-09
-3.71282e-09
1.90548e-09
-4.51208e-09
1.23849e-08
-1.15563e-08
-1.342e-08
1.97236e-10
8.71066e-09
-1.98503e-09
1.69029e-09
1.8933e-09
-8.66185e-09
7.86485e-10
-4.11192e-09
-5.94261e-09
1.1688e-08
-1.44072e-08
1.5846e-09
1.59336e-09
-2.09515e-09
1.5858e-08
-1.53562e-08
-1.0054e-09
1.3573e-08
2.47365e-09
-3.57772e-09
-1.34511e-08
6.95261e-09
-1.64166e-08
-7.82412e-09
6.21722e-09
5.70977e-09
1.39352e-08
-9.09392e-09
3.21717e-09
8.64951e-09
9.58364e-09
4.02504e-09
-3.98254e-09
2.07044e-08
-1.83241e-08
4.57239e-09
-9.50422e-09
2.34998e-09
4.85144e-09
1.3162e-08
-1.78657e-10
1.21314e-08
-1.29582e-08
-1.58755e-09
3.00761e-09
-2.17941e-09
7.59351e-10
1.04431e-08
-6.26248e-09
7.1633e-09
-9.80166e-09
1.51602e-09
-4.77177e-09
1.08263e-08
-1.12927e-08
-7.56956e-09
8.74525e-09
9.26739e-09
1.22188e-08
8.8515e-10
-1.32827e-08
1.81383e-09
9.4252e-10
-1.05587e-08
-6.78629e-09
9.77541e-09
-1.97006e-09
2.51523e-09
-8.33012e-09
4.49378e-09
-5.04199e-09
1.09378e-08
-3.53273e-09
-1.10752e-08
3.67019e-09
-4.56551e-09
1.07315e-08
2.20416e-09
1.29997e-09
-4.95651e-09
-1.63499e-08
9.87699e-09
1.14294e-08
9.73439e-10
-1.0478e-08
-9.72673e-09
1.52483e-08
1.19569e-08
2.53157e-09
-9.637e-09
-1.29924e-08
-1.78277e-10
-1.23707e-08
3.90189e-10
-7.78448e-10
1.059e-08
1.23786e-08
-7.99982e-09
1.56958e-08
-1.49405e-08
3.41238e-09
-6.91758e-10
1.72535e-09
1.21319e-08
-3.88272e-09
-1.19869e-08
-5.12112e-09
-2.55237e-11
4.47334e-09
1.15548e-08
-7.34365e-09
1.06156e-09
-9.39014e-10
2.21507e-09
-2.86361e-09
5.33178e-09
2.56949e-08
-1.89172e-09
-1.57663e-08
1.7658e-08
2.64921e-08
-2.12173e-08
2.14761e-08
1.92316e-08
-1.22465e-08
-2.38958e-09
1.43325e-08
2.27961e-10
-1.17433e-08
-3.99527e-10
-5.99483e-09
-2.01498e-09
2.47138e-09
1.74777e-09
3.4834e-10
-1.01503e-08
9.94203e-09
-1.40084e-10
1.4216e-09
-5.7086e-09
-1.02732e-08
9.95761e-09
-7.99392e-10
-9.78072e-09
-4.95666e-11
-1.00449e-08
-3.20812e-09
-1.14949e-08
2.35056e-09
7.63963e-09
4.98891e-09
9.54311e-10
-1.1225e-08
1.0619e-08
7.57943e-10
-8.20947e-09
5.30317e-09
-3.71673e-10
2.86265e-09
-3.82719e-09
-1.24881e-08
-1.32294e-08
1.2292e-08
-1.00865e-08
-1.48921e-08
9.47933e-09
8.95617e-09
7.85694e-10
1.88645e-09
-1.76527e-08
1.04834e-08
1.62266e-09
4.09162e-09
4.54153e-10
-7.26812e-10
-5.42534e-10
-3.96886e-09
2.77653e-09
-1.97388e-09
5.74338e-10
-6.70943e-10
9.66049e-11
-2.57935e-09
1.23526e-08
2.18358e-09
2.56018e-09
-1.57657e-09
-2.11106e-09
2.12926e-10
-2.68744e-09
-9.67675e-10
1.2308e-08
9.48372e-09
-6.13832e-10
7.13773e-09
-1.13586e-09
-5.38803e-09
-9.47299e-09
-4.34534e-09
4.55655e-10
1.18681e-10
4.32814e-09
1.19778e-09
-1.6004e-08
-7.86989e-10
-1.05757e-09
-1.72901e-09
6.42685e-10
2.03463e-09
7.04556e-08
-4.95707e-10
-6.99599e-08
7.02982e-08
-7.83893e-11
-7.02198e-08
-1.40021e-08
2.1038e-10
1.43219e-08
-5.30168e-10
2.14918e-09
-2.22888e-09
2.90615e-09
1.83796e-09
-4.77747e-09
-8.16042e-10
-7.38164e-10
6.06623e-10
-1.92005e-10
7.53712e-10
-5.64849e-10
1.82325e-08
1.28831e-09
-1.51927e-08
-4.5879e-10
-1.917e-09
1.18196e-08
2.22929e-09
1.78163e-09
4.72578e-09
-1.56313e-09
-7.43129e-08
-1.21267e-08
-4.73476e-09
1.51992e-08
2.3291e-09
-1.16019e-09
-3.50114e-09
-1.56522e-09
9.37582e-10
-8.1992e-10
-1.49353e-08
-2.80334e-10
1.52156e-08
-1.03504e-08
-6.7115e-09
1.02756e-08
-8.96497e-09
8.77152e-09
-3.63204e-10
2.21062e-09
1.43453e-08
-1.40397e-08
-3.05535e-10
8.6264e-10
7.7386e-11
9.07478e-09
8.17686e-10
-1.40508e-09
-5.23342e-10
-1.40801e-08
-5.90046e-10
-1.28743e-08
1.13766e-08
-1.10027e-08
-7.20952e-08
6.93121e-08
2.78309e-09
7.20207e-10
-7.58105e-10
1.12605e-08
-7.13907e-10
4.29625e-11
-1.55916e-09
2.74545e-09
-3.20567e-09
-1.37755e-08
-1.04974e-09
1.88336e-09
-4.30895e-09
-1.3496e-08
1.80101e-09
5.61369e-09
9.17319e-09
-8.69558e-09
-7.08576e-10
-5.33153e-12
-9.2164e-09
-1.17441e-08
-3.13571e-10
-7.32001e-08
6.58932e-11
7.31342e-08
2.21162e-09
7.17496e-08
-4.31563e-10
-6.0898e-10
-1.43029e-08
3.46758e-10
-7.05289e-08
7.01821e-08
-4.30087e-11
-7.02582e-08
7.03012e-08
6.63339e-10
7.13334e-08
1.52304e-09
-7.28564e-08
7.14116e-08
-7.82498e-11
-7.04993e-08
7.23536e-08
1.27971e-09
7.25481e-08
-7.25929e-08
-1.94037e-10
-7.06769e-08
3.60148e-10
7.32804e-08
-1.42419e-09
-7.28775e-08
-1.16578e-10
7.38612e-08
-1.67101e-09
1.32206e-10
1.06732e-10
7.33317e-08
-7.21781e-08
7.28952e-08
-7.28764e-08
-7.24437e-08
7.40732e-08
-2.66154e-09
-3.10529e-09
2.79697e-09
-1.32032e-08
1.23966e-10
3.31688e-10
2.28097e-09
1.13358e-08
-1.35464e-08
4.01387e-08
-3.42469e-08
-1.608e-08
1.49849e-08
-1.04947e-10
-2.30304e-10
4.02492e-10
9.58831e-10
-2.31424e-10
4.79584e-10
4.70171e-09
1.09384e-09
-3.89008e-09
-6.50897e-10
7.42828e-10
-5.33473e-10
-2.50072e-09
1.25041e-08
2.34927e-09
-1.45731e-08
-1.97611e-09
-3.87735e-09
5.66412e-09
1.12218e-09
-2.41272e-09
1.34467e-08
-1.157e-09
-5.12169e-09
1.20928e-08
-7.48141e-09
-1.83638e-08
-1.28478e-08
7.84552e-09
5.19954e-09
-3.0271e-10
-5.29458e-10
3.30355e-09
1.43565e-08
1.30235e-09
-7.08023e-10
-5.76634e-10
6.22943e-10
-3.55666e-10
1.5613e-08
-2.94992e-10
-1.55983e-08
-8.42499e-09
-3.07598e-09
3.28321e-10
-4.26624e-10
5.64259e-09
-2.02955e-08
7.35393e-10
-1.77423e-09
-2.43432e-09
-2.17294e-09
1.50085e-08
-7.26075e-08
-2.57889e-10
7.28454e-08
-3.87414e-11
-7.37215e-08
6.94083e-10
7.22313e-08
-1.39367e-09
-7.13333e-08
-6.95181e-10
-1.98978e-09
1.57646e-08
7.40548e-08
2.59472e-10
8.43667e-10
-7.93207e-10
1.2684e-08
1.84583e-09
-1.18174e-08
-1.15052e-08
-3.88193e-09
8.34542e-09
1.54779e-09
-6.91333e-09
-6.19928e-09
8.63104e-09
-3.87287e-10
9.98993e-09
1.88223e-08
-1.7635e-08
3.0599e-09
-1.20366e-08
3.10955e-09
-7.53894e-08
3.29418e-09
-1.99943e-08
-1.22755e-08
-6.68721e-10
-5.91591e-09
-1.47034e-08
8.87603e-09
-1.49e-08
6.73408e-10
5.78004e-10
-1.56662e-09
-1.58003e-08
1.62973e-08
1.21804e-08
-1.18638e-08
-5.94892e-09
1.42387e-08
-1.60206e-09
8.10062e-10
-1.73752e-09
8.10343e-10
1.20111e-08
1.41088e-09
6.64533e-08
-1.74026e-08
8.83683e-10
-1.42754e-08
-3.7796e-10
-4.37081e-10
-4.62324e-10
7.33131e-08
-7.47068e-08
-6.96852e-08
-6.99988e-08
-8.28578e-11
6.33633e-10
-7.18841e-08
-6.92307e-08
6.93374e-08
6.80297e-08
-7.09017e-08
6.81619e-08
-7.23259e-08
6.80453e-08
-7.25199e-08
6.84055e-08
7.39736e-08
4.65258e-10
5.71767e-10
7.41574e-08
-7.33182e-08
1.90147e-10
-1.90147e-10
2.88488e-09
-3.86583e-10
1.54621e-08
-2.2241e-10
2.2241e-10
5.68193e-10
5.36368e-10
1.48924e-08
1.2456e-08
-1.37336e-09
2.22891e-09
6.4697e-09
1.8671e-09
5.06541e-10
-3.69967e-10
-2.92737e-09
1.41199e-08
1.49766e-08
-3.99468e-09
1.10294e-08
3.38316e-10
2.50908e-10
3.05627e-09
-1.15803e-09
-1.82953e-09
-5.47281e-09
-1.53021e-10
-5.61869e-10
1.50633e-08
4.28152e-10
2.30838e-10
1.9178e-08
-2.43112e-08
1.6777e-08
2.49346e-09
1.55034e-09
2.0789e-09
-3.44172e-09
1.84957e-08
-1.71329e-08
-1.87676e-10
1.24211e-09
5.6402e-10
-7.22907e-08
-7.16141e-08
1.53384e-09
-1.42162e-09
7.75887e-10
2.26259e-08
1.76724e-08
-6.19663e-09
2.56031e-10
-4.52189e-09
-1.34598e-09
3.0797e-08
-5.16085e-09
4.97546e-09
6.60223e-08
1.64878e-10
6.63328e-10
-2.92183e-10
-3.60526e-10
-3.93976e-09
2.34636e-08
-1.46383e-08
1.35434e-09
-1.27326e-08
-1.41547e-10
2.15552e-08
-2.84034e-08
9.47832e-10
3.66778e-09
-9.05487e-10
)
;

boundaryField
{
    back
    {
        type            empty;
        value           nonuniform 0();
    }
    ingreso
    {
        type            calculated;
        value           nonuniform List<scalar> 
14
(
-1.54286e-08
-1.54288e-08
-1.54288e-08
-1.54288e-08
-1.54286e-08
-1.54283e-08
-1.54288e-08
-1.54288e-08
-1.54286e-08
-1.54286e-08
-1.54288e-08
-1.5428e-08
-1.5428e-08
-1.54286e-08
)
;
    }
    salida
    {
        type            calculated;
        value           nonuniform List<scalar> 2(8.64396e-08 1.2956e-07);
    }
    front
    {
        type            empty;
        value           nonuniform 0();
    }
    defaultFaces
    {
        type            calculated;
        value           uniform 0;
    }
}


// ************************************************************************* //
