/*--------------------------------*- C++ -*----------------------------------*\
  =========                 |
  \\      /  F ield         | OpenFOAM: The Open Source CFD Toolbox
   \\    /   O peration     | Website:  https://openfoam.org
    \\  /    A nd           | Version:  7
     \\/     M anipulation  |
\*---------------------------------------------------------------------------*/
FoamFile
{
    version     2.0;
    format      ascii;
    class       surfaceScalarField;
    location    "109";
    object      phi;
}
// * * * * * * * * * * * * * * * * * * * * * * * * * * * * * * * * * * * * * //

dimensions      [0 3 -1 0 0 0 0];

internalField   nonuniform List<scalar> 
1111
(
7.16061e-09
1.2862e-08
-1.6062e-08
-3.96056e-09
7.08887e-09
-1.17675e-08
1.18392e-08
-1.47314e-08
5.88967e-09
8.74751e-09
9.42025e-11
9.99856e-10
-1.16185e-09
-1.43982e-08
1.45602e-08
-1.43656e-08
1.41937e-08
1.17177e-09
-1.60717e-09
1.49159e-08
2.11981e-09
-2.53631e-09
9.29004e-09
-9.1747e-09
2.42097e-09
-6.72419e-09
-1.26104e-08
1.25956e-08
6.73892e-09
-5.01779e-08
-2.61141e-08
7.6292e-08
-8.08991e-09
7.73183e-09
7.44695e-09
3.22741e-09
3.80789e-10
-3.30498e-09
-3.03223e-10
1.58724e-08
-1.62735e-08
-2.32718e-08
2.36729e-08
-9.66695e-09
-7.90094e-09
8.80279e-09
8.7651e-09
-3.55967e-08
1.77374e-08
-3.23833e-08
5.02427e-08
9.49156e-09
-1.96013e-09
-1.42556e-08
-2.56096e-10
1.25425e-09
-2.5807e-09
1.58255e-09
-3.97062e-09
1.32865e-08
1.97388e-09
-1.12898e-08
8.80813e-09
-2.69925e-09
-1.50609e-08
8.95199e-09
3.71569e-08
-2.98257e-08
-7.33123e-09
-1.94147e-08
2.74735e-10
1.72279e-08
1.912e-09
-1.08397e-09
4.23478e-09
-1.78342e-08
1.46834e-08
-6.12284e-08
-3.96124e-09
6.51897e-08
1.34949e-10
-1.08861e-09
-3.2112e-10
1.27478e-09
-1.81003e-09
-1.36395e-08
-5.8597e-11
-2.04206e-10
1.44949e-10
1.17854e-10
-1.04156e-08
-8.65949e-09
1.32597e-08
5.81541e-09
6.84317e-10
-2.13959e-09
-8.20911e-09
9.66438e-09
8.83802e-09
7.30733e-10
-9.90996e-09
3.41216e-10
-2.86813e-09
-8.11447e-09
1.11883e-08
-2.05744e-10
1.14147e-08
-1.08127e-09
-1.52526e-09
-7.44395e-10
7.56352e-10
-3.57438e-11
2.37869e-11
-2.71114e-11
6.115e-10
1.42285e-10
-7.26673e-10
-3.72881e-10
-4.05229e-11
4.03935e-10
9.46857e-12
-6.6403e-11
-6.98082e-10
1.16809e-10
6.47676e-10
-1.19002e-10
-6.91797e-10
1.02287e-09
-1.83645e-08
-2.07304e-09
-2.98213e-10
3.48183e-11
-1.09486e-10
1.33784e-08
-1.32472e-08
4.10354e-09
-3.30317e-10
5.13602e-10
2.98423e-10
-4.81708e-10
8.98109e-11
-1.05717e-09
9.34209e-10
3.3149e-11
-1.815e-09
1.07022e-08
-1.14235e-08
-2.04965e-10
-1.30963e-10
3.77145e-11
-8.70574e-09
1.06461e-08
-1.00303e-08
1.22908e-08
-1.71342e-08
4.50457e-09
3.38809e-10
4.12063e-11
-1.24815e-10
-1.21357e-10
1.23915e-10
7.06917e-10
-7.44802e-11
-5.95052e-08
7.42291e-08
-1.47239e-08
9.62085e-10
-1.8065e-10
-1.05856e-09
2.77123e-10
1.13733e-09
1.03063e-08
-1.37128e-08
2.26918e-09
-1.9457e-09
7.91627e-09
-8.93447e-09
2.9639e-09
-6.80026e-09
5.55168e-09
5.73744e-09
-4.48886e-09
-7.9041e-09
-1.44187e-09
1.55493e-09
7.79104e-09
-1.80654e-10
-9.09138e-08
9.12993e-08
-2.04836e-10
-2.559e-10
-8.97487e-08
9.01584e-08
-1.5378e-10
8.30787e-08
-1.49185e-09
1.10174e-10
-8.16971e-08
-2.72296e-09
-5.93767e-10
5.66688e-10
7.843e-10
-3.88904e-10
3.88102e-09
-8.31805e-10
3.57347e-09
-6.62269e-09
-8.70426e-10
8.1369e-10
-1.49137e-08
6.57106e-09
1.00215e-08
1.07869e-09
-1.08065e-08
-2.93655e-10
-6.04206e-09
1.36369e-08
8.8805e-10
-8.48294e-09
1.4393e-08
-4.6085e-09
3.842e-09
-1.36265e-08
1.5386e-08
1.67179e-09
-1.62896e-09
-1.88042e-10
-2.00775e-08
-7.43416e-09
2.76997e-08
1.45892e-08
-8.90194e-09
-1.83473e-09
8.07953e-09
-1.22869e-08
5.8322e-11
-1.72117e-11
-1.09967e-09
-3.60991e-08
-2.34061e-08
8.37077e-09
3.22603e-10
3.59745e-09
-6.96149e-09
1.13375e-08
6.27013e-09
-5.35285e-10
2.7417e-10
4.32338e-10
-1.71224e-10
5.66131e-09
-4.84013e-09
3.69946e-09
-4.52063e-09
-3.60322e-10
-5.72939e-10
2.35179e-10
5.65299e-10
-4.89014e-10
4.76175e-11
-6.46308e-10
5.71579e-10
-1.82827e-08
2.38296e-09
1.61075e-09
1.4289e-08
1.80794e-10
-6.19435e-10
-9.66443e-11
-4.25702e-09
-1.52109e-08
1.18517e-09
5.62094e-09
1.21256e-08
-5.24048e-09
-1.25061e-08
1.63725e-08
7.57685e-10
-1.58341e-08
-1.2961e-09
-6.14861e-10
3.9537e-10
4.93661e-10
-2.22899e-10
1.00986e-10
1.21914e-10
-7.52604e-09
-3.46687e-09
4.19264e-09
-1.68904e-10
2.71678e-10
-1.02774e-10
1.0318e-09
-1.57044e-08
-7.30147e-10
1.0176e-08
-1.12608e-08
-8.47848e-10
-1.75282e-10
1.30037e-08
4.48282e-09
-4.21132e-09
-1.32752e-08
4.23881e-11
7.24217e-09
-8.03407e-09
6.34358e-09
-1.55523e-09
-9.15512e-09
8.33052e-09
2.37984e-09
-1.97089e-09
7.04133e-10
-1.39441e-08
-8.66987e-11
-8.22054e-11
4.41773e-10
5.69464e-10
-8.91534e-09
7.87147e-10
1.72598e-08
-1.67438e-09
-1.18269e-08
1.32224e-08
-1.39548e-09
1.2295e-08
1.39128e-08
-1.54944e-08
-1.07134e-08
-4.41557e-10
8.41372e-10
-3.99815e-10
1.0922e-10
1.20054e-10
-2.29274e-10
-2.09865e-10
7.95217e-10
-5.85352e-10
1.22564e-09
-9.76321e-10
-2.49324e-10
-1.04904e-08
1.00761e-09
9.48282e-09
1.82879e-09
-6.03149e-10
8.9832e-09
-1.54264e-08
7.98725e-09
-9.49117e-09
6.80798e-11
3.57334e-09
-4.14006e-10
-2.20958e-09
2.27766e-09
-6.36109e-09
7.6981e-09
-1.33701e-09
-4.04179e-10
4.30659e-09
-2.13829e-11
1.72509e-08
-1.44768e-08
-1.63679e-09
-6.23437e-09
5.47632e-09
-7.37578e-11
-1.6988e-10
5.67677e-09
-5.64401e-09
-3.27654e-11
6.81059e-09
4.58816e-09
-6.60623e-11
-1.58846e-08
1.04917e-08
1.76879e-08
5.83881e-09
8.21395e-09
8.16079e-09
-6.84852e-09
1.45507e-09
-1.19455e-08
7.73078e-11
1.60459e-09
-1.3021e-08
2.69738e-09
-4.19713e-10
1.10397e-08
-1.02821e-08
-3.00373e-10
-6.66477e-10
-1.38333e-08
7.85225e-09
6.60278e-10
1.11839e-11
-8.87752e-09
4.96144e-09
-3.00137e-08
-1.25216e-08
-2.86017e-09
1.5485e-09
1.41337e-08
1.11126e-08
-1.08568e-08
-1.43895e-08
1.53547e-08
-3.18423e-09
-1.21705e-08
1.5971e-09
4.02618e-09
-8.56894e-10
-8.66821e-10
-7.84616e-10
1.06851e-09
5.82924e-10
-2.04756e-10
3.21561e-10
3.15533e-10
6.21467e-08
-6.2173e-08
2.62483e-11
6.2066e-08
-6.23704e-08
3.04341e-10
8.37583e-10
6.47305e-08
-6.55579e-08
8.27355e-10
6.41224e-08
6.08161e-10
-2.23643e-10
-6.65033e-08
9.45428e-10
-6.20629e-08
6.19281e-08
1.3483e-10
1.31473e-09
-6.7818e-08
-6.22229e-08
1.59944e-10
1.27745e-08
-5.25906e-10
1.14636e-09
-3.6966e-09
3.07614e-09
2.72849e-10
-1.13469e-09
8.34556e-10
-4.78263e-10
1.34521e-09
-1.56055e-09
6.93599e-10
1.33583e-09
-1.40125e-09
4.82128e-11
-3.36374e-11
-3.46974e-09
2.6242e-09
-1.84762e-09
2.69315e-09
-3.00224e-10
-2.67787e-09
2.45219e-09
-3.44093e-09
-5.88806e-09
5.5551e-10
-5.55826e-10
1.09918e-09
1.08059e-09
-6.4132e-09
7.85057e-09
3.15079e-09
1.97184e-08
-4.36366e-09
-6.49159e-10
2.74981e-10
9.29688e-10
-1.00712e-08
-2.60279e-08
5.22982e-09
-4.17726e-09
-3.2058e-09
2.15324e-09
8.58426e-11
2.57852e-11
2.92307e-10
-2.46714e-09
3.27162e-09
9.0384e-09
6.62325e-10
-1.08528e-10
2.03788e-09
-2.22958e-09
1.70281e-09
1.47017e-08
1.33448e-08
-2.69212e-08
3.27223e-08
6.30948e-09
-2.28536e-08
-1.0377e-08
1.85656e-08
-1.80555e-08
1.06026e-08
-1.37533e-12
-2.60336e-10
-1.13954e-09
-1.62086e-09
-2.8129e-09
3.16847e-09
1.52034e-08
-6.44345e-10
-1.38549e-08
-9.22834e-10
-2.14739e-09
3.92356e-10
1.54833e-08
1.7784e-08
1.36917e-08
7.72569e-10
-1.74789e-09
-1.27164e-08
-1.40142e-09
5.98063e-09
1.2644e-08
-3.90336e-10
-9.67938e-10
-3.68246e-09
2.821e-09
3.48566e-09
2.51608e-09
1.45933e-08
4.33375e-09
-1.44443e-08
1.81507e-08
-1.76216e-09
2.32694e-09
-3.28274e-09
1.92649e-09
-4.96834e-09
1.29187e-08
-1.1921e-08
-1.40572e-08
2.95631e-10
8.79324e-09
-1.76314e-09
1.47156e-09
1.39075e-09
-8.667e-09
6.92663e-10
-4.54728e-09
-5.98627e-09
1.21687e-08
-1.48494e-08
9.68347e-10
1.68756e-09
-2.19997e-09
1.68858e-08
-1.63734e-08
-1.15828e-09
1.42057e-08
3.13308e-09
-4.51101e-09
-1.40485e-08
7.60915e-09
-1.74835e-08
-8.18116e-09
6.94004e-09
5.88575e-09
1.46882e-08
-1.01498e-08
2.99309e-09
9.53657e-09
9.80024e-09
3.88914e-09
-4.24077e-09
2.18397e-08
-1.93127e-08
5.08221e-09
-1.07219e-08
2.16922e-09
5.72361e-09
1.40378e-08
-4.04216e-10
1.28331e-08
-1.35871e-08
-1.94335e-09
1.5445e-09
-5.38213e-10
9.37068e-10
1.11094e-08
-6.36035e-09
7.37656e-09
-1.11164e-08
1.47314e-09
-4.74152e-09
1.15509e-08
-1.20499e-08
-7.59401e-09
9.27133e-09
9.4321e-09
1.29839e-08
5.10478e-10
-1.38986e-08
1.37956e-09
7.69545e-10
-1.11893e-08
-6.72446e-09
1.03198e-08
-1.27971e-09
2.50824e-09
-9.01662e-09
4.75965e-09
-5.35477e-09
1.16862e-08
-3.46368e-09
-1.19106e-08
3.68801e-09
-4.4563e-09
1.1401e-08
1.7516e-09
1.09952e-09
-5.07664e-09
-1.79137e-08
1.05765e-08
1.24138e-08
6.97635e-10
-1.11168e-08
-1.00811e-08
1.61213e-08
1.26989e-08
2.89011e-09
-9.86541e-09
-1.33536e-08
-3.24272e-10
-1.2758e-08
1.6966e-10
-7.69215e-10
1.17879e-08
1.25571e-08
-8.23708e-09
1.67573e-08
-1.61127e-08
3.68908e-09
-5.20337e-10
1.81465e-09
1.29947e-08
-3.94116e-09
-1.27763e-08
-4.95035e-09
1.96917e-09
4.58576e-09
1.24238e-08
-7.23719e-09
1.01407e-09
-1.69643e-09
3.6723e-10
-6.14153e-10
5.97863e-09
2.64636e-08
3.81393e-11
-9.13718e-09
9.09904e-09
2.86749e-08
-2.24216e-08
2.21289e-08
1.9818e-08
-1.27199e-08
-2.73067e-09
1.51742e-08
1.41447e-10
-1.21473e-08
-4.69308e-10
-5.99877e-09
-1.82756e-09
2.14468e-09
1.43449e-09
-5.48702e-10
-1.11977e-08
1.16588e-08
8.75731e-11
2.9549e-09
-4.94134e-09
-1.12481e-08
1.07776e-08
-9.3553e-10
-1.09501e-08
-2.85585e-10
-1.14565e-08
-2.41488e-09
-1.21381e-08
2.14082e-09
7.88247e-09
5.15955e-09
-5.76315e-10
-1.18298e-08
1.18575e-08
5.37178e-10
-8.94236e-09
5.10093e-09
-1.60183e-09
2.08496e-09
-1.81222e-09
-1.30659e-08
-1.23947e-08
1.18566e-08
-1.01458e-08
-1.58315e-08
1.00927e-08
9.31037e-09
7.92029e-10
2.75846e-09
-1.18956e-08
1.15998e-08
1.6612e-09
3.86583e-09
2.57845e-10
-4.41746e-10
-1.76421e-10
-4.16561e-09
2.4695e-09
-4.51285e-10
1.38334e-10
-1.63363e-10
2.50282e-11
-2.72585e-09
1.31717e-08
2.25307e-09
2.52091e-09
3.46396e-10
-1.24892e-09
-6.3228e-10
-2.22e-09
-1.68462e-10
1.31266e-08
1.01871e-08
-2.83503e-10
6.71553e-09
-1.25315e-09
-5.17888e-09
-9.86497e-09
-5.15858e-09
1.03864e-10
3.44696e-11
4.85594e-09
1.35778e-09
-1.73306e-08
-2.6631e-10
-6.96965e-10
-2.77822e-09
1.02998e-09
3.2257e-09
6.19495e-08
-8.56339e-11
-6.18638e-08
6.23739e-08
1.88917e-10
-6.25628e-08
-1.41008e-08
-3.54708e-10
1.44322e-08
2.32895e-11
3.23507e-09
-1.70401e-09
2.41161e-09
1.80064e-09
-4.55621e-09
-2.30782e-10
-4.73465e-10
3.84657e-10
-8.24161e-11
3.63322e-10
-2.36441e-10
1.97929e-08
1.01262e-09
-1.59496e-08
-9.65573e-11
-1.94615e-09
1.26434e-08
2.29747e-09
1.82202e-09
5.34372e-09
-2.1413e-09
-7.7232e-08
-2.41784e-08
-5.05765e-09
1.58456e-08
2.49851e-09
1.27301e-10
-2.79859e-09
-9.70526e-10
2.03137e-10
-2.00549e-10
-9.57027e-09
-3.72188e-10
9.94246e-09
-1.09343e-08
-6.5579e-09
1.07678e-08
-9.54162e-09
8.73895e-09
3.05056e-10
1.36674e-09
9.13864e-09
-9.12811e-09
-1.05266e-11
5.41106e-10
8.75816e-11
1.09338e-08
4.39464e-10
-6.48776e-10
-1.66935e-11
-1.4255e-08
-4.31633e-10
-1.38819e-08
1.28058e-08
-1.19313e-08
-6.60355e-08
6.49934e-08
1.04212e-09
1.87874e-10
-1.6209e-10
1.21389e-08
-1.69202e-10
5.83868e-12
-2.11742e-09
2.74924e-09
-3.40743e-09
-1.34664e-08
-1.62537e-09
2.57736e-09
-4.64823e-09
-1.41901e-08
1.50776e-09
5.53208e-09
9.75594e-09
-9.12773e-09
-1.9053e-10
2.13277e-11
-9.28429e-09
-1.34863e-08
1.51001e-10
-6.26943e-08
2.3635e-10
6.24579e-08
6.95384e-10
6.3427e-08
-2.23517e-10
-1.69715e-09
-1.45111e-08
1.07928e-10
-6.34093e-08
6.33014e-08
1.83348e-10
-6.2951e-08
6.27676e-08
2.8965e-10
6.17975e-08
1.50322e-10
-6.19478e-08
6.16287e-08
1.68765e-10
-8.78889e-08
8.84981e-08
-9.80664e-13
9.33926e-08
-9.30991e-08
-2.67246e-10
-8.66284e-08
-4.33161e-10
9.33517e-08
-1.8269e-10
-8.49157e-08
-7.67313e-10
9.34823e-08
1.73686e-10
-5.22195e-10
1.96159e-09
9.23583e-08
-6.93099e-08
6.21382e-08
-6.23189e-08
-6.29502e-08
6.14864e-08
1.42343e-10
-3.17199e-09
2.96865e-09
-1.42409e-08
3.95898e-11
6.42742e-11
1.03612e-09
8.68952e-09
-1.13888e-08
3.83371e-08
-3.45706e-08
-1.67875e-08
1.38214e-08
-2.90043e-11
-1.94533e-10
1.1224e-10
5.14091e-10
-1.08913e-10
2.88813e-10
4.38662e-09
1.05682e-09
-3.51695e-09
-1.17804e-10
1.52622e-10
-8.009e-11
-2.60973e-09
1.33194e-08
2.46203e-09
-1.44209e-08
-2.62606e-09
-3.23013e-09
5.48682e-09
1.05303e-09
-2.6037e-09
1.43822e-08
-1.20199e-09
-1.46914e-09
1.39348e-09
-8.12981e-09
-1.90875e-08
-1.35306e-08
8.06749e-09
5.75869e-09
-1.77887e-10
-5.77875e-10
2.90044e-09
1.44971e-08
2.29473e-09
-1.8759e-09
-3.5116e-10
4.01421e-10
-2.20141e-10
1.58974e-08
-6.11138e-10
-1.56584e-08
4.57542e-10
8.15794e-11
3.39599e-10
-2.76346e-10
3.37145e-09
-1.61572e-08
3.98559e-10
-1.45116e-09
-2.03171e-09
-2.27359e-09
1.57912e-08
-9.05915e-08
-1.39029e-10
9.16786e-08
-1.90406e-10
-8.9164e-08
-4.76797e-10
9.31018e-08
-2.75166e-10
-9.29123e-08
-5.28341e-10
-1.52597e-09
1.69082e-08
9.198e-08
-1.96678e-10
2.94579e-11
-2.20865e-10
9.67198e-09
2.39693e-09
-7.10869e-09
-1.2303e-08
-5.67583e-09
8.37421e-09
1.52634e-09
-6.74976e-09
-5.97616e-09
9.05873e-09
-3.88841e-11
1.01238e-08
1.9499e-08
-1.79884e-08
3.08964e-09
-1.28144e-08
3.12775e-09
-6.9959e-08
3.92351e-09
-2.06046e-08
-1.30442e-08
-4.42298e-10
-5.91953e-09
-1.53099e-08
9.08217e-09
-1.50774e-08
3.75393e-10
3.18005e-10
-1.95659e-09
-1.67738e-08
1.71653e-08
7.01448e-09
-7.60825e-09
-4.35357e-09
1.5344e-08
-1.68601e-09
7.24212e-10
-7.43515e-10
3.11444e-11
1.19689e-08
3.31641e-09
7.09127e-08
-1.82427e-08
6.55768e-10
-1.50976e-08
-2.11212e-10
-2.42722e-10
-1.42017e-10
6.09491e-08
-6.12242e-08
-6.33799e-08
-6.31477e-08
-6.42494e-11
-2.62167e-10
-9.25858e-08
-6.04519e-08
6.24135e-08
6.51035e-08
-6.02783e-08
6.45813e-08
-6.04609e-08
6.3814e-08
-6.07282e-08
6.33809e-08
9.23087e-08
2.43561e-10
-6.33304e-09
7.51286e-08
-6.54792e-08
2.31684e-11
-2.31684e-11
-5.99714e-11
-3.00029e-10
1.54752e-08
-3.24563e-12
3.24563e-12
2.80489e-10
1.51454e-09
1.39143e-08
1.34649e-08
-2.70598e-09
3.71371e-09
6.71491e-09
1.7228e-09
3.34955e-10
-2.24607e-10
-2.96238e-09
1.4576e-08
1.48424e-08
-4.29255e-09
1.18204e-08
1.56351e-10
1.26799e-10
2.65725e-09
-7.55229e-10
-1.46053e-09
-5.85251e-09
-1.94104e-10
-3.66895e-10
1.53136e-08
2.16308e-10
3.91422e-11
1.42452e-08
-2.62805e-08
1.78746e-08
2.70027e-09
1.19149e-09
2.5002e-09
-3.72141e-09
1.94124e-08
-1.81912e-08
-6.3531e-11
-3.85795e-11
-1.44138e-09
-7.92136e-08
-7.07513e-08
1.21774e-09
-3.13187e-10
6.01479e-10
2.30153e-08
1.86126e-08
-6.42609e-09
7.65081e-11
-4.20236e-09
-2.52549e-09
2.99604e-08
1.61417e-10
1.48184e-08
7.35786e-08
3.56387e-11
5.00508e-10
-1.33924e-10
-1.91004e-10
-3.55954e-09
2.43528e-08
-1.48684e-08
8.65972e-10
-1.42022e-08
-4.11051e-11
2.04077e-08
-2.87632e-08
9.62323e-10
1.85102e-09
-1.70444e-10
)
;

boundaryField
{
    back
    {
        type            empty;
        value           nonuniform 0();
    }
    ingreso
    {
        type            calculated;
        value           nonuniform List<scalar> 
14
(
-1.54286e-08
-1.54288e-08
-1.54288e-08
-1.54288e-08
-1.54286e-08
-1.54283e-08
-1.54288e-08
-1.54288e-08
-1.54286e-08
-1.54286e-08
-1.54288e-08
-1.5428e-08
-1.5428e-08
-1.54286e-08
)
;
    }
    salida
    {
        type            calculated;
        value           nonuniform List<scalar> 2(1.0141e-07 1.1459e-07);
    }
    front
    {
        type            empty;
        value           nonuniform 0();
    }
    defaultFaces
    {
        type            calculated;
        value           uniform 0;
    }
}


// ************************************************************************* //
