/*--------------------------------*- C++ -*----------------------------------*\
  =========                 |
  \\      /  F ield         | OpenFOAM: The Open Source CFD Toolbox
   \\    /   O peration     | Website:  https://openfoam.org
    \\  /    A nd           | Version:  7
     \\/     M anipulation  |
\*---------------------------------------------------------------------------*/
FoamFile
{
    version     2.0;
    format      ascii;
    class       surfaceScalarField;
    location    "23.5";
    object      phi;
}
// * * * * * * * * * * * * * * * * * * * * * * * * * * * * * * * * * * * * * //

dimensions      [0 3 -1 0 0 0 0];

internalField   nonuniform List<scalar> 
1111
(
6.05807e-09
1.33948e-08
-1.53682e-08
-4.08472e-09
6.21013e-09
-1.15198e-08
1.13677e-08
-1.4512e-08
4.45937e-09
9.76923e-09
2.83378e-10
1.97245e-10
-2.29593e-10
-1.39827e-08
1.40151e-08
-1.38973e-08
1.37075e-08
3.87061e-10
-1.37606e-09
1.48483e-08
1.95634e-09
-4.03875e-09
9.54604e-09
-1.12603e-08
5.75304e-09
-6.53354e-09
-1.25039e-08
1.24639e-08
6.57362e-09
-5.11672e-08
-2.54876e-08
7.66548e-08
-8.06696e-09
7.45497e-09
6.82213e-09
3.73747e-09
3.63966e-10
-3.81015e-09
-2.91289e-10
1.57694e-08
-1.5814e-08
-2.26057e-08
2.26503e-08
-9.63799e-09
-8.26803e-09
8.94456e-09
8.96146e-09
-3.4798e-08
1.72017e-08
-3.18096e-08
4.94059e-08
9.58202e-09
-1.86965e-09
-1.42459e-08
-3.39588e-09
3.51139e-09
-3.55952e-09
3.444e-09
-3.7069e-09
1.30709e-08
1.99133e-09
-1.13553e-08
8.88866e-09
-2.09396e-09
-1.50299e-08
8.23519e-09
3.86417e-08
-3.15918e-08
-7.04984e-09
-1.91217e-08
-1.88937e-10
1.76445e-08
1.66614e-09
-3.69812e-10
3.80149e-09
-1.8008e-08
1.45764e-08
-6.11546e-08
-3.96513e-09
6.51197e-08
2.05199e-10
-1.39296e-09
-4.09404e-10
1.59717e-09
-1.0088e-09
-1.32583e-08
-2.55006e-10
-3.6434e-10
3.52695e-10
2.66651e-10
-9.93881e-09
-8.04998e-09
1.22728e-08
5.71596e-09
8.55247e-10
-2.21371e-09
-8.51916e-09
9.87762e-09
7.68724e-09
1.08562e-09
-8.44347e-09
-3.29391e-10
-2.73901e-09
-7.75747e-09
1.06517e-08
-1.55245e-10
1.12412e-08
-2.49701e-10
-2.10283e-09
-1.1113e-09
1.07647e-09
1.36757e-10
-1.01926e-10
-4.24872e-10
9.80538e-10
5.98454e-10
-1.15412e-09
-6.9924e-10
-4.68332e-11
7.43573e-10
2.50074e-12
4.05319e-11
-1.14913e-09
8.51627e-11
1.02344e-09
-2.42799e-11
-1.04649e-09
5.90724e-10
-1.80847e-08
-1.62778e-09
-6.07557e-10
7.19546e-11
-1.63638e-10
1.32882e-08
-1.33068e-08
3.82009e-09
-4.87602e-10
6.99402e-10
4.73529e-10
-6.85329e-10
-8.2548e-10
-2.66493e-09
2.03284e-09
1.45757e-09
-1.99191e-09
8.54863e-09
-1.05955e-08
-4.68105e-10
-2.33506e-10
9.40529e-11
-8.79509e-09
1.00045e-08
-9.27639e-09
1.16562e-08
-1.66827e-08
5.15896e-09
-1.32483e-10
1.18265e-10
-2.50492e-10
-3.35878e-10
3.19132e-10
9.79331e-10
-2.21996e-10
-5.98896e-08
7.43873e-08
-1.44977e-08
1.22192e-09
-4.2937e-10
-1.42423e-09
6.31677e-10
9.25742e-10
1.02855e-08
-1.36314e-08
2.4202e-09
-2.98411e-10
6.56456e-09
-7.91387e-09
1.64772e-09
-6.34537e-09
5.83851e-09
5.40338e-09
-4.89652e-09
-6.83416e-09
-2.45436e-09
2.29204e-09
6.99648e-09
-2.66706e-10
-9.08899e-08
9.13134e-08
-1.56732e-10
-2.33476e-10
-8.97438e-08
9.01322e-08
-1.54884e-10
8.30617e-08
-1.50753e-09
1.17228e-10
-8.16714e-08
-3.31827e-09
4.74795e-11
8.94939e-10
9.75225e-10
-6.48241e-10
4.12416e-09
-1.92029e-09
3.25163e-09
-5.4555e-09
-1.19773e-09
1.08749e-09
-1.49948e-08
6.56874e-09
9.01881e-09
1.0386e-09
-9.71495e-09
-3.42451e-10
-6.2261e-09
1.26114e-08
1.54535e-09
-7.93064e-09
1.41447e-08
-3.84329e-09
3.15269e-09
-1.34541e-08
1.53727e-08
1.66723e-09
-1.61118e-09
-1.20527e-10
-1.99976e-08
-7.64936e-09
2.77675e-08
1.34838e-08
-8.13414e-09
-2.3113e-09
7.50915e-09
-1.1424e-08
-1.70686e-10
3.41437e-10
-1.59498e-09
-3.73862e-08
-2.25035e-08
7.85289e-09
-1.32049e-10
3.93536e-09
-6.75765e-09
1.05746e-08
6.18758e-09
-7.51167e-10
4.38198e-10
6.08697e-10
-2.95728e-10
5.98392e-09
-4.55505e-09
3.50894e-09
-4.93781e-09
-7.2903e-10
-7.58738e-10
3.38637e-10
8.91496e-10
-8.53167e-10
-2.54204e-10
-1.27852e-09
1.10785e-09
-1.72362e-08
2.43748e-09
1.4244e-09
1.33743e-08
3.38103e-10
-8.83754e-10
-2.05516e-10
-3.60132e-09
-1.46424e-08
1.00755e-09
5.66248e-09
1.15838e-08
-5.24709e-09
-1.19992e-08
1.635e-08
5.56249e-10
-1.58246e-08
-1.0816e-09
-8.38657e-10
6.02154e-10
6.74702e-10
-1.10554e-09
6.05611e-10
4.99926e-10
-6.96921e-09
-3.87827e-09
4.50211e-09
-4.69838e-10
6.68324e-10
-1.98486e-10
1.32386e-09
-1.4864e-08
-6.49376e-10
8.54729e-09
-9.88983e-09
-1.23165e-09
-1.35974e-09
1.24214e-08
4.40439e-09
-4.17614e-09
-1.26496e-08
3.50604e-10
6.89313e-09
-7.56832e-09
6.5137e-09
-2.04834e-09
-8.28136e-09
7.64465e-09
2.68505e-09
-1.79603e-09
5.98525e-10
-1.34449e-08
-2.93575e-10
-1.76262e-10
-6.32592e-10
1.3718e-09
-7.57336e-09
8.12969e-10
1.71438e-08
-1.60684e-09
-1.51076e-08
1.62676e-08
-1.16e-09
1.17771e-08
1.39656e-08
-1.55644e-08
-1.01783e-08
-9.48464e-10
1.56796e-09
-6.19498e-10
1.71654e-09
-2.24035e-09
5.23814e-10
3.06583e-09
-4.55553e-09
1.4897e-09
2.10731e-09
-1.77316e-09
-3.34144e-10
-1.23511e-08
1.99214e-10
1.21518e-08
2.8743e-09
-7.66991e-10
8.80975e-09
-1.49643e-08
6.36342e-09
-7.29442e-09
1.26002e-10
4.07201e-09
-4.60534e-10
-3.23827e-09
3.36427e-09
-7.96678e-09
9.35426e-09
-1.38747e-09
-9.86776e-10
4.05052e-09
1.06042e-09
1.69499e-08
-1.45154e-08
-1.50873e-09
-5.25273e-09
5.06915e-09
-1.73671e-09
-2.80139e-10
7.11154e-09
-7.07645e-09
-3.50825e-11
7.08338e-09
4.30392e-09
3.56797e-10
-1.55315e-08
1.02271e-08
1.70815e-08
5.67029e-09
8.30623e-09
8.18476e-09
-6.71312e-09
5.84859e-10
-1.29359e-08
1.54644e-09
-2.34613e-10
-1.25256e-08
3.80175e-09
-4.37483e-10
1.42946e-08
-1.37384e-08
-6.92585e-11
-1.18668e-09
-1.35073e-08
7.0107e-09
9.85965e-10
-6.44539e-11
-8.95675e-09
5.38568e-09
-3.17123e-08
-1.25488e-08
-2.23854e-09
1.28006e-09
1.35793e-08
1.10154e-08
-1.06937e-08
-1.39009e-08
1.68029e-08
-3.10784e-09
-1.36951e-08
1.82308e-09
3.79911e-09
-1.53425e-09
-1.01945e-09
-1.0901e-09
1.42577e-09
6.83783e-10
-3.28663e-10
4.64642e-10
4.72718e-10
6.19762e-08
-6.20485e-08
7.233e-11
6.19606e-08
-6.22147e-08
2.54066e-10
8.06009e-10
6.48049e-08
-6.56332e-08
8.28324e-10
6.41982e-08
6.06698e-10
-2.38535e-10
-6.65698e-08
9.36638e-10
-6.23108e-08
6.2173e-08
1.37829e-10
1.30698e-09
-6.78768e-08
-6.24254e-08
1.14545e-10
1.19713e-08
-1.25879e-09
1.89661e-09
-3.75949e-09
3.12168e-09
4.78778e-10
-1.34683e-09
1.22232e-09
-8.97416e-10
1.54608e-09
-1.83663e-09
1.18796e-09
1.61256e-09
-1.78801e-09
5.1689e-10
-1.19785e-10
-3.29334e-09
3.16546e-09
-2.45047e-09
2.57835e-09
-9.85892e-10
-2.9431e-09
2.6702e-09
-3.97098e-09
-5.48058e-09
6.88242e-10
-8.03117e-10
1.53423e-09
1.23417e-09
-6.62417e-09
8.00422e-09
2.92387e-09
2.11105e-08
-4.3076e-09
-8.63536e-10
3.06257e-10
1.24552e-09
-1.01728e-08
-2.72134e-08
5.51155e-09
-4.54049e-09
-3.07234e-09
2.10128e-09
1.42015e-10
2.61994e-12
5.98937e-10
-2.9062e-09
3.58165e-09
8.53308e-09
9.69057e-10
-6.75362e-10
2.27531e-09
-2.58583e-09
2.40238e-09
1.45466e-08
1.29983e-08
-2.64547e-08
3.20513e-08
6.10285e-09
-2.23713e-08
-1.01862e-08
1.78045e-08
-1.74513e-08
1.06621e-08
-3.31898e-10
6.18244e-11
-1.51794e-09
-1.9951e-09
-1.89875e-09
3.53093e-09
1.44956e-08
-5.32287e-10
-1.33648e-08
2.24588e-10
-2.98667e-09
-1.81022e-10
1.50793e-08
1.72718e-08
1.34432e-08
7.70457e-10
-1.5276e-09
-1.26861e-08
-1.99613e-09
5.95934e-09
1.21245e-08
-9.08342e-10
-1.32482e-09
-3.49948e-09
2.73183e-09
3.93311e-09
2.39631e-09
1.39871e-08
4.14865e-09
-1.37314e-08
1.71193e-08
-1.61616e-09
2.95342e-09
-3.7064e-09
1.89774e-09
-4.46618e-09
1.26951e-08
-1.19358e-08
-1.36821e-08
5.98987e-10
8.61697e-09
-1.9569e-09
1.65974e-09
1.83139e-09
-8.88509e-09
4.80626e-10
-4.14438e-09
-5.9238e-09
1.20312e-08
-1.49925e-08
1.50637e-09
1.64102e-09
-2.09416e-09
1.61748e-08
-1.57217e-08
-9.65365e-10
1.38763e-08
2.52666e-09
-3.75936e-09
-1.37316e-08
7.23974e-09
-1.67608e-08
-7.93019e-09
6.39654e-09
5.82138e-09
1.41251e-08
-9.34192e-09
3.19388e-09
8.83309e-09
9.76279e-09
3.91172e-09
-4.07703e-09
2.12976e-08
-1.86561e-08
4.59825e-09
-9.82984e-09
2.311e-09
5.18158e-09
1.33622e-08
-8.04563e-11
1.23242e-08
-1.32091e-08
-1.59873e-09
2.68625e-09
-1.88993e-09
8.02408e-10
1.06554e-08
-6.31106e-09
7.23949e-09
-1.02138e-08
1.42257e-09
-4.75549e-09
1.10753e-08
-1.15669e-08
-7.39061e-09
8.83194e-09
9.21407e-09
1.24349e-08
9.99556e-10
-1.35149e-08
1.78093e-09
8.79013e-10
-1.07647e-08
-6.73735e-09
1.01114e-08
-1.8539e-09
2.52511e-09
-8.57277e-09
4.65343e-09
-5.09459e-09
1.1139e-08
-3.49454e-09
-1.12916e-08
3.64717e-09
-4.54494e-09
1.09284e-08
2.19996e-09
1.2407e-09
-4.92276e-09
-1.74576e-08
1.04012e-08
1.19791e-08
9.18027e-10
-1.05995e-08
-9.62127e-09
1.5298e-08
1.19873e-08
2.68903e-09
-9.49471e-09
-1.3166e-08
-2.46319e-10
-1.2348e-08
3.36726e-10
-5.98882e-10
1.09139e-08
1.23723e-08
-8.01058e-09
1.6001e-08
-1.52908e-08
3.43851e-09
-4.99553e-10
1.62114e-09
1.22527e-08
-3.85933e-09
-1.2316e-08
-5.12854e-09
4.1594e-10
4.47799e-09
1.18085e-08
-7.5312e-09
7.98761e-10
-1.07239e-09
1.90366e-09
-2.43e-09
5.93763e-09
2.60221e-08
-8.48964e-10
-1.32943e-08
1.41433e-08
2.75926e-08
-2.18439e-08
2.18707e-08
1.92307e-08
-1.24112e-08
-2.50193e-09
1.47621e-08
1.0063e-10
-1.18969e-08
-3.50509e-10
-6.00042e-09
-2.01612e-09
2.46057e-09
1.75552e-09
2.54431e-10
-1.06053e-08
1.05873e-08
-2.36445e-10
2.03305e-09
-5.51387e-09
-1.0443e-08
1.01423e-08
-6.09131e-10
-1.02036e-08
-6.84241e-12
-1.03172e-08
-2.96231e-09
-1.1658e-08
2.32268e-09
7.70607e-09
5.06154e-09
3.32872e-10
-1.13629e-08
1.12844e-08
7.17065e-10
-8.35041e-09
5.28419e-09
-6.44542e-10
2.8103e-09
-3.46675e-09
-1.28482e-08
-1.34297e-08
1.29136e-08
-9.805e-09
-1.57322e-08
1.00057e-08
8.99209e-09
8.30178e-10
2.54999e-09
-1.58443e-08
1.0664e-08
1.67244e-09
4.06432e-09
4.11402e-10
-6.59466e-10
-4.80967e-10
-4.0044e-09
2.76079e-09
-1.74305e-09
4.37411e-10
-5.10308e-10
7.28966e-11
-2.42879e-09
1.24011e-08
2.01492e-09
2.53206e-09
-1.26312e-09
-1.93934e-09
6.06716e-12
-2.64808e-09
-8.09196e-10
1.25545e-08
9.66168e-09
-5.64143e-10
7.16695e-09
-1.18043e-09
-5.42238e-09
-9.71925e-09
-5.0493e-09
3.43287e-10
9.41242e-11
4.42386e-09
1.44311e-09
-1.64665e-08
-6.85467e-10
-9.81613e-10
-2.04312e-09
7.33197e-10
2.51513e-09
6.19799e-08
3.44666e-11
-6.20144e-08
6.24852e-08
1.35099e-10
-6.26203e-08
-1.41165e-08
1.56672e-10
1.44628e-08
-5.02977e-10
2.51999e-09
-2.13795e-09
2.87817e-09
1.78489e-09
-4.45189e-09
-6.30299e-10
-6.90154e-10
5.60023e-10
-1.65596e-10
6.7817e-10
-5.00274e-10
1.86669e-08
1.11731e-09
-1.53603e-08
-3.64395e-10
-1.96503e-09
1.20289e-08
2.18891e-09
1.75012e-09
4.93808e-09
-1.71982e-09
-7.78037e-08
-2.40745e-08
-4.83516e-09
1.55565e-08
2.34953e-09
-9.40293e-10
-3.45084e-09
-1.4529e-09
8.0555e-10
-6.77474e-10
-1.31339e-08
-3.15294e-10
1.34492e-08
-1.05445e-08
-6.6766e-09
1.04837e-08
-9.16654e-09
8.9e-09
-2.53817e-10
1.99978e-09
1.26145e-08
-1.23085e-08
-3.06006e-10
7.99459e-10
4.98138e-11
9.43529e-09
1.14513e-09
-1.27703e-09
-4.29678e-10
-1.41469e-08
-5.19402e-10
-1.32275e-08
1.19084e-08
-1.12913e-08
-6.60366e-08
6.49447e-08
1.09187e-09
5.70764e-10
-5.68144e-10
1.15159e-08
-5.35246e-10
2.49388e-11
-1.82573e-09
2.75633e-09
-3.36494e-09
-1.34995e-08
-1.62004e-09
2.53342e-09
-4.57781e-09
-1.37188e-08
1.83011e-09
5.61644e-09
9.32944e-09
-8.68726e-09
-5.63506e-10
2.82597e-11
-9.36345e-09
-1.23794e-08
5.98324e-11
-6.2804e-08
2.64194e-10
6.25398e-08
6.9681e-10
6.35014e-08
-6.85559e-11
-7.51735e-10
-1.42398e-08
1.30999e-10
-6.33501e-08
6.32191e-08
1.49428e-10
-6.29265e-08
6.2777e-08
6.06194e-10
6.15497e-08
2.55192e-10
-6.18048e-08
6.13478e-08
2.01894e-10
-8.78502e-08
8.84586e-08
-1.71315e-12
9.34873e-08
-9.32269e-08
-1.88031e-10
-8.65945e-08
-4.2744e-10
9.33087e-08
-5.998e-11
-8.48937e-08
-7.64085e-10
9.32641e-08
2.98692e-10
-5.25107e-10
2.07613e-09
9.1994e-08
-6.93843e-08
6.20667e-08
-6.23334e-08
-6.30375e-08
6.12146e-08
1.33169e-10
-3.00834e-09
2.66101e-09
-1.3384e-08
9.98666e-11
2.4342e-10
2.53972e-09
1.00786e-08
-1.21726e-08
3.83359e-08
-3.45303e-08
-1.63312e-08
1.40525e-08
-9.62116e-11
-2.14195e-10
3.4978e-10
9.88296e-10
-2.01819e-10
4.33179e-10
4.6983e-09
1.07151e-09
-3.87207e-09
-4.9369e-10
5.65644e-10
-3.99638e-10
-2.40154e-09
1.26261e-08
2.17663e-09
-1.44133e-08
-2.21002e-09
-3.83884e-09
5.6971e-09
1.10249e-09
-2.36137e-09
1.39798e-08
-1.21719e-09
-4.85785e-09
7.74083e-09
-7.78577e-09
-1.88931e-08
-1.2841e-08
7.62951e-09
5.81051e-09
-3.25505e-10
-5.15971e-10
3.30204e-09
1.43137e-08
1.65113e-09
-1.11659e-09
-4.97917e-10
5.33268e-10
-3.15489e-10
1.58662e-08
-4.56628e-10
-1.57249e-08
-5.10772e-09
-2.84369e-09
2.89158e-10
-2.47537e-10
4.45664e-09
-1.85244e-08
6.84267e-10
-1.75304e-09
-2.38261e-09
-2.20503e-09
1.51417e-08
-9.05341e-08
-2.06411e-10
9.17103e-08
-2.61846e-10
-8.91489e-08
-4.63892e-10
9.3207e-08
-1.93205e-10
-9.29793e-08
-6.72637e-10
-1.84739e-09
1.60052e-08
9.20253e-08
-1.37743e-10
6.50908e-12
-8.85006e-11
1.13456e-08
2.0777e-09
-1.01598e-08
-1.17791e-08
-5.53071e-09
8.44956e-09
1.38729e-09
-6.91298e-09
-6.54268e-09
9.12291e-09
-2.81374e-10
1.01476e-08
1.90497e-08
-1.75919e-08
3.00608e-09
-1.23419e-08
3.03193e-09
-7.00875e-08
4.05095e-09
-2.0304e-08
-1.24879e-08
-6.34072e-10
-5.72582e-09
-1.53875e-08
9.21648e-09
-1.5127e-08
6.12994e-10
5.20295e-10
-1.44852e-09
-1.60029e-08
1.65623e-08
9.87643e-09
-9.82895e-09
-5.54245e-09
1.4724e-08
-1.56946e-09
8.25247e-10
-1.56527e-09
6.43555e-10
1.20516e-08
3.43066e-09
7.09567e-08
-1.78627e-08
9.702e-10
-1.45004e-08
-3.26858e-10
-3.69543e-10
-2.4526e-10
6.08135e-08
-6.10067e-08
-6.33436e-08
-6.30642e-08
-1.58599e-10
-2.07917e-10
-9.26128e-08
-6.07757e-08
6.28518e-08
6.50619e-08
-6.0477e-08
6.45368e-08
-6.0537e-08
6.37727e-08
-6.0725e-08
6.33453e-08
9.23418e-08
4.126e-10
-6.5673e-09
7.49562e-08
-6.49582e-08
1.39331e-10
-1.39331e-10
2.26878e-09
-3.87301e-10
1.5476e-08
-1.62314e-10
1.62314e-10
5.29259e-10
1.36305e-09
1.40658e-08
1.27769e-08
-2.58624e-09
3.60162e-09
6.44148e-09
1.91648e-09
4.87469e-10
-3.49686e-10
-2.86517e-09
1.43014e-08
1.47987e-08
-4.32998e-09
1.14908e-08
2.86954e-10
2.25512e-10
3.02443e-09
-1.06063e-09
-1.81455e-09
-5.90037e-09
-1.47545e-10
-5.13348e-10
1.51799e-08
3.98072e-10
1.88288e-10
1.68583e-08
-2.52502e-08
1.70763e-08
2.53706e-09
1.5199e-09
2.10083e-09
-3.48167e-09
1.88734e-08
-1.74926e-08
-1.54245e-10
9.91378e-10
-1.44039e-09
-7.91391e-08
-7.08247e-08
1.48412e-09
-1.21877e-09
7.44146e-10
2.27328e-08
1.81877e-08
-6.44446e-09
2.04321e-10
-4.52422e-09
-1.89314e-09
3.00501e-08
1.31955e-10
1.49519e-08
7.3077e-08
1.1906e-10
5.84367e-10
-2.368e-10
-3.09006e-10
-3.91324e-09
2.36329e-08
-1.47005e-08
1.25673e-09
-1.38127e-08
-1.0409e-10
2.01329e-08
-2.80079e-08
9.02487e-10
2.63311e-09
-7.46165e-10
)
;

boundaryField
{
    back
    {
        type            empty;
        value           nonuniform 0();
    }
    ingreso
    {
        type            calculated;
        value           nonuniform List<scalar> 
14
(
-1.54286e-08
-1.54288e-08
-1.54288e-08
-1.54288e-08
-1.54286e-08
-1.54283e-08
-1.54288e-08
-1.54288e-08
-1.54286e-08
-1.54286e-08
-1.54288e-08
-1.5428e-08
-1.5428e-08
-1.54286e-08
)
;
    }
    salida
    {
        type            calculated;
        value           nonuniform List<scalar> 2(1.01878e-07 1.14122e-07);
    }
    front
    {
        type            empty;
        value           nonuniform 0();
    }
    defaultFaces
    {
        type            calculated;
        value           uniform 0;
    }
}


// ************************************************************************* //
