/*--------------------------------*- C++ -*----------------------------------*\
  =========                 |
  \\      /  F ield         | OpenFOAM: The Open Source CFD Toolbox
   \\    /   O peration     | Website:  https://openfoam.org
    \\  /    A nd           | Version:  7
     \\/     M anipulation  |
\*---------------------------------------------------------------------------*/
FoamFile
{
    version     2.0;
    format      ascii;
    class       volScalarField;
    location    "65.5";
    object      p;
}
// * * * * * * * * * * * * * * * * * * * * * * * * * * * * * * * * * * * * * //

dimensions      [0 2 -2 0 0 0 0];

internalField   nonuniform List<scalar> 
591
(
0.00012389
0.000123907
0.000123913
0.000123866
0.000123868
0.000123938
0.000123933
0.0001239
0.000116987
0.000123917
0.000124095
0.000122831
0.000123907
0.000119734
0.000123901
0.00012395
0.000123878
0.000123943
0.000121952
0.00012328
0.000123881
-3.52628e-06
0.000124093
0.000123884
0.000124051
0.000123904
0.000124003
0.000124012
0.000123917
0.000123926
0.00012407
0.000124046
0.000124065
0.000124064
0.000124066
0.000123391
0.000124061
0.000123884
0.000124088
0.000124007
0.000123972
0.000124058
0.000123912
0.000123933
0.000124055
0.000124075
0.000119249
0.000124078
0.000123917
0.000124035
0.000124022
0.000124055
2.39374e-05
3.05803e-05
4.78353e-05
0.000123912
0.000124082
0.00012407
0.000124076
0.000123891
0.000123977
0.000123908
0.000123906
0.000123955
0.000122572
0.000123908
0.000123911
0.000124073
0.000120726
0.000123922
0.000123917
0.00012408
0.000124048
0.000124059
0.000124065
0.000124041
0.000123885
0.000124077
0.000123887
0.000123821
0.000123665
0.000124081
0.000124042
0.00012402
0.000124089
0.000123898
0.000123989
0.000124071
0.000124034
0.000123787
0.000124047
0.000123991
0.000124008
0.000123891
0.000124087
0.000124042
0.000123595
0.000123494
0.00012365
0.000124092
0.000124001
0.000123917
0.000124097
0.000123865
0.000124097
0.000123909
0.000123906
0.000124046
0.000124088
0.000124092
0.000123979
0.000124067
0.000123923
0.000124073
0.00012409
0.00012407
0.000124023
0.00012402
0.000123582
0.000123991
0.000123909
0.000123904
0.000123984
0.00012389
0.000124061
0.000120201
0.000124096
0.000124072
0.000123663
0.000124066
0.0001239
0.000123588
0.000124031
0.000124028
0.000124069
0.000123915
0.000122623
0.000124095
0.000123903
0.000123581
0.000123645
0.000123995
0.000124077
0.000124088
0.000124083
7.61519e-06
3.67766e-06
2.07052e-06
3.81506e-05
3.6691e-05
5.65992e-06
3.83007e-05
1.57376e-05
3.72806e-05
1.78036e-05
0.000123908
0.0001239
0.000124084
0.000124078
0.000124085
0.000124084
0.000124077
0.000124073
0.000124083
0.000124082
0.000124045
0.000124086
0.000124081
0.000124088
0.000124024
0.000123395
0.000124088
0.000122123
0.000124067
0.000124069
0.000124016
0.000123918
0.000124069
0.000124082
0.000124079
0.000123493
0.000122474
0.000123051
0.000123448
0.000124073
0.000124079
0.000123996
0.000123881
0.000124074
0.000122967
0.000123305
0.000123882
0.000124067
0.000123763
0.000124061
0.000124076
0.000124049
0.000123733
0.000123872
0.000124073
0.000124081
0.000124078
0.000123875
0.000124061
0.000123871
0.000124089
0.000123903
0.000123902
0.000124086
0.000123695
0.000123873
0.000123912
0.000123547
0.000124037
0.000123693
0.000123981
0.00012399
0.000124065
0.000123462
0.000123971
0.000123864
0.000123867
0.000124042
0.000123801
0.000123957
0.00012387
0.00012378
0.000123859
0.000124091
0.000123845
0.000124086
0.000123933
0.000124063
0.000123913
0.000123913
0.000124092
0.000123808
0.00012408
0.000123797
0.000123844
0.000123908
0.000123887
0.000123923
0.00012391
0.000123678
0.000123883
0.000123834
0.000124051
0.000123902
0.00012375
0.000124037
0.000123304
0.000123857
0.000123198
0.000123079
0.000123894
0.000123859
0.000123896
0.000123893
0.000123859
0.000124091
0.000123939
0.000124023
0.000123948
0.000123943
0.000123956
0.000124043
0.000123694
0.000124087
0.000123731
0.000123621
0.000123927
0.000124062
0.000123643
0.000124083
0.00012399
0.000124018
0.000124041
0.000123918
0.000123887
0.000123715
0.000123854
0.00012388
0.000123933
0.000123987
0.000124054
0.000124071
0.000124077
0.000123837
0.000123941
0.000124064
0.000124071
0.000124067
0.000123861
0.000124078
0.000123952
0.000124059
0.000123825
0.000124079
0.000123813
0.000124056
0.000123947
0.000123888
1.16393e-05
2.1907e-05
0.000123843
0.000123914
0.000124089
0.000123844
0.000124089
0.000123924
0.000124079
0.000124057
0.000123797
0.000124051
0.000123882
0.000124085
0.000123916
-2.09737e-07
0.000123774
0.000124062
0.000124057
0.000123758
0.000123901
0.000123941
0.000124052
0.000123816
0.000124073
0.00012396
0.000123909
0.00012405
0.000123862
0.00012379
0.000123822
0.000123919
4.74631e-05
0.000124067
0.000124051
0.000123908
0.000124074
0.000123987
0.00012393
0.000123911
0.0001239
0.00012406
0.000123926
0.000123834
0.000123953
0.000123838
0.000124073
0.000123846
0.0001239
0.000123936
0.000124021
1.98682e-05
2.73261e-05
3.42861e-05
9.63675e-06
0.000123885
3.30454e-05
2.59946e-05
0.00012407
1.90694e-05
1.70257e-05
3.81766e-05
7.57354e-06
3.99284e-05
5.60238e-06
4.08228e-05
3.68695e-06
4.2806e-05
1.8746e-06
3.63919e-05
2.31919e-05
2.94421e-05
1.49886e-05
0.000123764
0.000124081
0.000123952
0.000123958
0.000120896
0.000124005
0.000124076
0.000124046
0.000123853
0.000124081
0.000124081
0.000124062
0.000124059
0.000123825
0.000123901
0.000124064
0.00012407
0.000123908
0.000123782
0.000123843
0.000123412
0.000123863
0.000124094
0.000124066
0.000123913
0.000124088
0.000123758
0.000123935
0.000123717
0.000122866
0.000124061
0.000124072
0.000124093
0.00012377
0.00012395
0.000123716
0.000123924
0.000123915
2.60361e-05
2.18717e-05
3.30272e-05
1.16155e-05
0.000124097
0.000123764
1.98147e-05
2.82473e-05
3.55934e-05
9.58541e-06
0.000123911
0.000124013
0.000123865
0.000123875
0.000123903
0.00012403
0.000123822
0.000124056
0.000123995
0.000123104
0.000123879
0.000123846
5.93446e-05
0.000123228
0.000124086
0.000123894
0.000123792
0.000124075
0.000124078
0.000123877
0.000123676
0.000123905
0.000123971
0.000123758
0.000124032
0.000122917
0.000123842
0.000123855
0.000124038
0.000100876
0.000123887
0.00012349
0.000123825
0.000124087
0.000123726
1.08931e-05
2.11093e-05
3.53582e-05
2.8183e-05
1.36589e-05
5.37038e-08
4.20694e-05
2.68841e-06
4.01487e-05
4.76005e-06
3.94073e-05
6.81246e-06
3.86145e-05
8.85482e-06
3.72806e-05
1.36707e-05
3.1719e-05
3.05753e-05
2.39315e-05
2.52703e-05
1.77608e-05
1.29351e-05
1.57039e-05
0.00012408
0.000102412
0.000123884
0.000123819
0.000124084
0.000123976
0.00012409
0.000123808
0.000123938
0.000124052
0.000124047
0.000124056
0.00012381
0.000123908
0.000123806
0.000124015
0.000123848
0.000124085
0.000123951
0.000123783
0.000123787
0.000123919
0.000123911
0.000124091
0.000124082
0.00012409
0.000124052
0.000124094
0.000123724
0.000123905
0.000124086
0.000123851
0.00012398
0.00012391
0.000123946
0.000123791
0.000124051
0.000124049
0.000123364
0.000121377
0.000123094
0.000123637
0.000123907
0.000123737
0.000123918
0.000124091
0.000124053
0.000123911
0.000123526
0.000123506
0.000124086
0.000124053
0.000123926
0.00012402
0.000123563
5.83118e-05
4.01066e-05
0.000124025
0.000124042
0.000123405
0.00012275
0.000123892
0.000123632
0.000123378
0.000123903
0.000123803
0.000124074
0.000123936
0.000123963
0.000119005
5.44665e-05
0.000123933
8.12263e-05
1.86114e-06
-3.81623e-07
0.000123902
0.000123872
0.000124052
0.000124093
0.000124081
0.000124085
0.000124084
0.000123888
-2.30775e-06
0.000122834
0.000123925
0.000124032
0.000122011
0.000124084
0.000124084
0.000122292
0.000124001
0.000124054
0.000121698
0.000124087
7.63425e-05
0.000124082
0.000123708
0.000124046
0.000122379
0.000123613
0.000123669
0.000123935
0.00012409
0.000124039
0.000124083
0.000124095
0.000123908
0.000116179
)
;

boundaryField
{
    back
    {
        type            empty;
    }
    ingreso
    {
        type            zeroGradient;
    }
    salida
    {
        type            fixedValue;
        value           uniform 0;
    }
    front
    {
        type            empty;
    }
    defaultFaces
    {
        type            zeroGradient;
    }
}


// ************************************************************************* //
