/*--------------------------------*- C++ -*----------------------------------*\
  =========                 |
  \\      /  F ield         | OpenFOAM: The Open Source CFD Toolbox
   \\    /   O peration     | Website:  https://openfoam.org
    \\  /    A nd           | Version:  8
     \\/     M anipulation  |
\*---------------------------------------------------------------------------*/
FoamFile
{
    version     2.0;
    format      ascii;
    class       volScalarField;
    location    "9.2";
    object      p;
}
// * * * * * * * * * * * * * * * * * * * * * * * * * * * * * * * * * * * * * //

dimensions      [0 2 -2 0 0 0 0];

internalField   nonuniform List<scalar> 
3080
(
4.01057e-05
3.77127e-05
3.98789e-05
4.01094e-05
3.89309e-05
3.99119e-05
3.99656e-05
2.16441e-05
3.98355e-05
3.99557e-05
4.01203e-05
3.99839e-05
3.6781e-05
3.87407e-05
4.01252e-05
3.81802e-05
3.99479e-05
4.00353e-05
4.01146e-05
3.95817e-05
2.61847e-05
3.96792e-05
3.93812e-05
2.32406e-05
3.91161e-05
3.84368e-05
3.99062e-05
3.8335e-05
4.011e-05
3.85562e-05
3.42232e-05
2.38526e-05
3.85152e-05
2.51116e-05
2.98954e-05
4.01249e-05
3.97008e-05
3.07594e-05
3.99946e-05
3.85541e-05
4.00876e-05
4.00121e-05
4.00458e-05
4.003e-05
3.82338e-05
4.01211e-05
3.98255e-05
4.01039e-05
4.00678e-05
3.7801e-05
4.00292e-05
3.26544e-05
3.94778e-05
3.99377e-05
3.84953e-05
3.99083e-05
3.98734e-05
2.63208e-06
3.05978e-05
3.99149e-05
2.89278e-06
3.21918e-06
4.05445e-06
3.9951e-05
3.69477e-06
4.09048e-06
4e-05
3.99763e-05
2.03869e-06
5.51763e-06
3.9975e-05
3.44034e-06
2.78187e-05
6.99564e-06
4.00575e-05
2.68814e-05
4.00538e-05
4.89975e-06
3.99996e-05
4.00665e-05
3.78315e-05
3.99868e-05
8.47679e-06
3.38917e-05
3.96362e-05
6.37376e-06
3.97624e-05
9.65958e-06
1.05558e-05
3.97774e-05
7.85401e-06
9.96075e-06
1.17858e-06
8.82776e-06
9.65424e-06
3.98558e-05
9.33675e-06
1.10437e-05
1.20552e-05
3.99915e-05
3.99636e-05
2.36007e-06
2.63867e-06
2.70641e-05
3.97325e-05
3.88072e-05
4.00467e-05
1.08189e-05
1.02096e-05
1.11518e-05
1.24276e-05
1.35544e-05
4.0018e-05
4.60118e-06
5.07421e-06
2.27678e-05
3.96832e-05
1.53398e-06
1.73348e-06
1.15939e-05
1.26515e-05
3.99295e-05
3.96634e-05
5.51573e-06
6.06574e-06
4.00685e-05
4.00706e-05
1.47302e-05
1.60458e-05
3.83283e-05
6.43452e-06
7.06163e-06
3.99373e-05
7.35778e-06
8.0619e-06
4.01236e-05
3.98401e-05
4.00918e-05
1.61273e-05
1.75462e-05
1.62547e-05
1.53967e-05
4.00428e-05
8.28011e-06
9.06088e-06
3.80885e-05
4.00625e-05
1.38959e-05
1.51467e-05
3.33829e-06
3.70305e-06
4.00778e-05
3.98543e-05
3.99173e-05
4.0069e-05
1.75538e-05
1.90521e-05
2.89072e-05
3.09774e-06
3.99218e-05
1.77286e-05
1.90786e-05
2.07262e-05
3.85973e-05
1.71707e-06
1.68724e-05
4.00971e-05
3.98795e-05
4.54204e-06
1.52786e-05
1.66425e-05
3.9811e-05
2.29e-05
1.92223e-05
3.02155e-05
6.01122e-06
2.23136e-05
2.03387e-05
4.00752e-05
3.2158e-07
3.37529e-07
2.58874e-07
1.18083e-05
1.83413e-05
2.68195e-05
3.98379e-05
2.08681e-05
7.49066e-06
1.66835e-05
1.8139e-05
4.00004e-05
1.27975e-05
3.97344e-05
2.39881e-05
4.00512e-05
1.3348e-05
1.45505e-05
4.00458e-05
1.95551e-05
2.12819e-05
2.03018e-06
2.28009e-06
8.97356e-06
2.31258e-05
1.3784e-05
1.99193e-05
2.16726e-05
1.9894e-05
2.24629e-05
4.00577e-05
9.29043e-06
1.01557e-05
3.95331e-05
4.00802e-05
3.83335e-05
3.99151e-05
1.47738e-05
2.27109e-05
2.05647e-05
1.04558e-05
4.23656e-06
4.67851e-06
2.29262e-05
1.06739e-05
1.16547e-05
3.97257e-05
3.93508e-05
3.98566e-05
5.14783e-06
5.66677e-06
2.53085e-05
3.9778e-05
2.31968e-05
2.16243e-05
3.97006e-05
2.35626e-05
2.39005e-05
6.0645e-06
6.66044e-06
4.01077e-05
1.2058e-05
1.31541e-05
3.97694e-05
2.24964e-05
4.16405e-07
4.35228e-07
5.14309e-07
2.27475e-05
3.99598e-05
6.98353e-06
7.65644e-06
3.63001e-05
2.0685e-05
1.23891e-06
1.41513e-06
3.71694e-05
2.01629e-05
7.90595e-06
8.65631e-06
2.4571e-05
4.00974e-05
1.8516e-05
2.00767e-05
2.079e-05
1.91837e-05
2.12721e-05
1.96584e-05
4.00541e-05
1.98143e-05
1.82584e-05
3.99184e-05
1.43564e-05
1.56463e-05
1.58894e-05
2.08229e-05
3.97728e-05
1.88278e-05
1.73317e-05
4.01056e-05
1.78312e-05
1.63985e-05
2.32908e-05
1.68316e-05
1.54602e-05
2.47474e-05
2.03036e-05
1.87218e-05
2.06481e-05
1.14448e-05
1.5333e-05
1.40713e-05
2.01857e-05
1.57433e-05
1.71427e-05
1.73605e-05
1.43325e-05
1.31456e-05
2.76192e-05
3.43976e-07
2.3555e-07
2.89563e-07
1.97393e-05
1.88121e-05
1.33338e-05
1.22234e-05
1.24335e-05
1.23356e-05
1.13022e-05
1.93231e-05
1.77949e-05
1.73334e-05
3.99164e-05
1.13345e-05
1.03785e-05
2.32993e-05
1.58478e-05
2.55493e-05
1.92827e-05
9.82902e-06
8.98881e-06
1.83241e-05
1.71593e-05
1.86414e-05
4.00759e-05
1.88367e-05
1.34207e-05
1.43589e-05
8.33057e-06
7.60528e-06
1.63388e-05
1.50011e-05
1.83312e-05
1.68672e-05
7.33719e-06
6.68839e-06
1.28733e-05
6.33753e-06
5.76598e-06
1.18857e-05
1.44072e-05
1.68384e-05
1.29787e-05
1.41514e-05
4.82824e-06
4.37213e-06
3.98092e-05
1.04001e-05
2.04567e-05
3.81786e-06
3.43821e-06
3.24541e-05
1.7333e-05
1.59326e-05
1.78287e-05
4.00926e-05
8.91637e-06
4.0043e-05
2.06108e-06
2.3242e-06
3.72986e-05
3.99069e-05
1.53504e-05
7.43269e-06
5.94601e-06
2.21349e-05
4.45258e-06
3.98318e-05
2.93827e-06
1.58334e-05
1.45346e-05
3.99093e-05
1.63443e-05
3.75597e-05
2.47165e-05
1.33681e-05
3.98139e-05
2.67471e-05
1.48333e-05
1.36087e-05
3.98689e-05
3.83925e-05
4.00643e-05
4.01215e-05
1.03266e-05
9.448e-06
1.48565e-05
1.57941e-06
1.08966e-05
1.38339e-05
1.26852e-05
4.00663e-05
1.81149e-05
1.96581e-05
2.46854e-05
8.82591e-06
8.06246e-06
3.99971e-05
1.38615e-05
2.17599e-05
2.38687e-05
3.99858e-05
9.41286e-06
2.13535e-05
4.0049e-05
1.28355e-05
1.17636e-05
3.86871e-05
7.92834e-06
1.23819e-05
1.1837e-05
1.08422e-05
3.97951e-05
2.43655e-05
5.32769e-06
4.83333e-06
3.87089e-05
6.44334e-06
1.13899e-05
1.08353e-05
9.91811e-06
4.00572e-05
3.97201e-05
4.95339e-06
1.03103e-07
1.68065e-07
1.05373e-07
4.00383e-05
1.31978e-06
1.162e-06
4.01225e-05
9.90573e-06
9.33401e-06
8.53239e-06
2.80897e-06
2.50696e-06
4.00978e-05
3.89892e-05
3.9733e-05
3.97198e-05
3.92913e-05
2.1722e-06
1.93377e-06
3.99027e-05
3.44726e-06
4.14915e-06
4.58355e-06
1.02789e-06
1.14403e-06
1.01932e-06
4.00358e-05
5.06051e-06
5.57196e-06
5.97733e-06
6.56584e-06
6.89829e-06
7.56387e-06
7.82138e-06
8.56386e-06
8.42145e-06
4.00096e-05
7.83599e-06
7.14892e-06
1.29578e-06
1.43135e-06
7.11455e-07
7.1202e-07
7.96378e-07
3.45697e-05
1.28889e-05
1.40536e-05
3.78337e-05
3.994e-05
4.00831e-05
6.83939e-06
6.22907e-06
4.00576e-05
3.7662e-05
3.6596e-05
4.01245e-05
1.80354e-05
1.95616e-05
6.93765e-06
3.99273e-05
3.99047e-05
3.99522e-05
1.40121e-06
1.56035e-06
1.13143e-05
1.23049e-05
3.93978e-05
5.83881e-06
5.30607e-06
1.32925e-05
2.57389e-05
1.42804e-05
4.00824e-05
3.69555e-05
4.00498e-05
4.00876e-05
4.00862e-05
3.81604e-05
3.99149e-05
3.97943e-05
5.4501e-06
1.29636e-06
4.00514e-05
3.94816e-05
3.66194e-05
4.00596e-05
2.37224e-05
3.97899e-05
4.32648e-06
3.90869e-06
3.99086e-05
3.42839e-05
3.99213e-05
1.92487e-06
3.99107e-05
4.00325e-05
4.00196e-05
2.55833e-05
3.99206e-05
3.24065e-06
3.59765e-06
3.95127e-06
3.9e-05
3.99042e-05
3.3122e-06
2.97103e-06
4.00379e-05
3.98624e-05
3.9893e-05
4.40283e-06
3.97814e-05
2.95548e-06
3.90785e-05
3.99224e-05
5.87363e-06
9.1967e-06
1.00544e-05
3.91384e-05
4.00916e-05
1.15518e-05
1.05788e-05
7.35353e-06
1.30517e-05
1.19634e-05
4.00057e-05
1.55428e-05
1.42635e-05
1.70425e-05
1.56564e-05
1.8544e-05
1.7073e-05
8.83539e-06
3.98811e-05
2.60697e-05
4.0064e-05
3.93568e-05
1.03175e-05
4.01119e-05
4.00588e-05
1.64429e-06
2.24344e-05
1.70744e-06
1.91243e-06
3.96219e-05
3.99145e-05
3.78141e-05
4.00541e-05
1.57533e-05
1.72308e-05
1.87109e-05
4.0105e-05
2.19634e-05
2.02833e-05
3.88039e-05
2.34647e-05
3.92288e-05
4.00622e-05
3.99202e-05
3.90364e-05
3.98051e-05
4.00209e-05
4.00741e-05
3.98919e-05
4.00412e-05
3.58315e-05
3.98663e-05
2.7641e-05
4.00564e-05
4.00459e-05
3.92887e-05
3.90726e-05
3.89076e-05
4.00581e-05
3.7737e-05
3.94599e-05
3.9993e-05
3.95479e-05
3.99059e-05
4.00514e-05
3.99034e-05
2.51827e-05
3.9879e-05
4.00413e-05
3.80063e-05
3.99849e-05
4.01004e-05
2.11569e-05
3.99342e-05
3.99801e-05
4.00242e-05
4.00493e-05
3.95926e-05
2.04307e-06
4.00631e-05
2.42934e-06
4.00532e-05
3.8701e-05
2.668e-05
2.22371e-05
3.93496e-05
4.00495e-05
3.99222e-05
4.01012e-05
3.9995e-05
4.00706e-05
4.00595e-05
4.0078e-05
4.00999e-05
4.003e-05
3.95272e-05
4.0075e-05
3.97915e-05
4.00079e-05
3.95422e-05
2.37391e-05
3.99159e-05
4.0037e-05
3.51191e-05
3.99278e-05
4.00304e-05
3.78986e-05
3.9141e-05
3.47255e-05
3.99289e-05
4.00614e-05
3.9619e-05
4.00765e-05
3.99723e-05
3.99324e-05
3.94193e-05
4.00735e-05
3.91383e-05
3.99196e-05
3.97366e-05
4.01052e-05
3.99281e-05
4.00171e-05
2.31817e-06
2.07004e-06
3.99739e-05
3.90299e-05
3.9934e-05
3.89684e-05
4.0091e-05
4.00877e-05
3.99018e-05
3.99606e-05
2.31927e-05
4.00788e-05
3.9912e-05
4.008e-05
4.00969e-05
3.98885e-05
4.01023e-05
4.00535e-05
4.00306e-05
4.00562e-05
4.00457e-05
3.98955e-05
3.99104e-05
4.00864e-05
4.00487e-05
4.00583e-05
4.00957e-05
3.99196e-05
3.99543e-05
4.00095e-05
4.00571e-05
4.00262e-05
3.99946e-05
3.99799e-05
3.99266e-05
4.00936e-05
3.9876e-05
3.99998e-05
3.86511e-05
4.01052e-05
3.9435e-05
4.00458e-05
3.98873e-05
3.94268e-05
3.94693e-05
4.00418e-05
2.67903e-05
4.00562e-05
3.93257e-05
3.99165e-05
4.00611e-05
3.98897e-05
4.0106e-05
3.99876e-05
4.00702e-05
4.00365e-05
4.0089e-05
3.98828e-05
4.00809e-05
3.91207e-05
3.95743e-05
4.00773e-05
4.00735e-05
3.99985e-05
3.94982e-05
3.99283e-05
3.99443e-05
4.0091e-05
3.88183e-05
3.98207e-05
4.01021e-05
4.00264e-05
3.99824e-05
3.99856e-05
3.98937e-05
3.9919e-05
4.01094e-05
4.00617e-05
3.99365e-05
4.00705e-05
3.98913e-05
3.99576e-05
4.01036e-05
3.93248e-05
2.06382e-06
4.00571e-05
3.9417e-05
3.99435e-05
4.00573e-05
3.99017e-05
4.00635e-05
4.00569e-05
4.0064e-05
3.99913e-05
3.98579e-05
3.99752e-05
3.85637e-05
4.01109e-05
4.00697e-05
4.00772e-05
3.98183e-05
4.00414e-05
3.99269e-05
4.01004e-05
4.00797e-05
4.013e-05
3.98629e-05
4.0089e-05
3.9899e-05
3.99582e-05
4.0085e-05
3.91229e-05
2.48071e-06
3.99778e-05
3.99957e-05
3.92446e-05
3.96691e-05
4.00477e-05
3.91145e-05
4.00177e-05
3.99116e-05
3.99101e-05
4.00986e-05
3.98972e-05
4.01003e-05
3.99891e-05
3.97282e-05
2.30325e-05
3.95713e-05
3.95803e-05
3.99367e-05
4.00398e-05
4.01e-05
4.01075e-05
4.01015e-05
3.99251e-05
4.00367e-05
4.01167e-05
3.95447e-05
4.0128e-05
3.95849e-05
4.00916e-05
4.01234e-05
4.00063e-05
4.00181e-05
3.99018e-05
4.00952e-05
4.00798e-05
4.00485e-05
4.01277e-05
3.98721e-05
3.99454e-05
3.99405e-05
4.01033e-05
4.0088e-05
3.9938e-05
4.00444e-05
4.00761e-05
4.00216e-05
2.16894e-05
4.0103e-05
3.98308e-05
3.97906e-05
4.00317e-05
4.00583e-05
4.00789e-05
4.01011e-05
3.96369e-05
4.01155e-05
3.99141e-05
3.98773e-05
3.99293e-05
3.99703e-05
3.99989e-05
3.99955e-05
4.00791e-05
3.9886e-05
4.01186e-05
4.00202e-05
4.00149e-05
4.00978e-05
3.97909e-05
3.9957e-05
3.99943e-05
4.00382e-05
4.01294e-05
4.01083e-05
3.99742e-05
3.98832e-05
4.00607e-05
3.99192e-05
4.00446e-05
4.01255e-05
3.98923e-05
3.98748e-05
4.00196e-05
3.99355e-05
3.98072e-05
3.98628e-05
3.99363e-05
4.01299e-05
4.00839e-05
4.00388e-05
3.94558e-05
3.98252e-05
3.99189e-05
2.76029e-06
2.4721e-06
4.00437e-05
4.01001e-05
3.98837e-05
3.95848e-05
3.94921e-05
2.94567e-06
4.00102e-05
3.99879e-05
4.01072e-05
3.99361e-05
3.9896e-05
4.00069e-05
3.97889e-05
3.94103e-05
4.00007e-05
3.93852e-05
3.94441e-05
3.95581e-05
4.01048e-05
4.0106e-05
3.93934e-05
3.98549e-05
3.98618e-05
3.97982e-05
4.01176e-05
3.95215e-05
3.92772e-05
4.00963e-05
4.00755e-05
3.98768e-05
3.45358e-05
4.00909e-05
3.97008e-05
3.99553e-05
3.94432e-05
4.00836e-05
3.93403e-05
3.96375e-05
4.01083e-05
3.9321e-05
3.95884e-05
3.99145e-05
4.00606e-05
4.00056e-05
3.87361e-05
3.9315e-05
3.94997e-05
3.95403e-05
4.01106e-05
3.98754e-05
3.99332e-05
3.96495e-05
3.95698e-05
3.98926e-05
3.98458e-05
3.98168e-05
3.98306e-05
3.94252e-05
3.96052e-05
3.92281e-05
3.42178e-06
4.00796e-05
3.9891e-05
3.99988e-05
3.22189e-06
2.8946e-06
3.96265e-05
2.8065e-06
2.50707e-06
3.98138e-05
3.88112e-05
4.00816e-05
4.0085e-05
3.98607e-05
4.00795e-05
3.96847e-05
3.9846e-05
3.99721e-05
4.00616e-05
3.9661e-05
4.01016e-05
3.98481e-05
3.9873e-05
3.96949e-05
3.97448e-05
3.333e-06
3.69884e-06
2.16907e-05
3.97351e-05
3.95134e-05
3.99501e-05
3.96626e-05
3.97655e-05
3.97617e-05
4.00966e-05
3.99644e-05
3.86145e-05
3.959e-05
3.88711e-05
3.97078e-05
4.02023e-05
3.96177e-05
4.00068e-05
3.98068e-05
3.5283e-06
3.98536e-05
3.87911e-05
3.96839e-05
3.95568e-05
3.97321e-05
3.96294e-05
3.90452e-06
3.98924e-05
4.00431e-05
3.91381e-05
3.97319e-05
4.18607e-06
3.78173e-06
3.92423e-05
3.97151e-05
1.92856e-06
1.70504e-06
2.16057e-05
4.00858e-05
3.94155e-05
3.97229e-05
4.39343e-06
3.92069e-05
4.00819e-05
3.93843e-05
3.98737e-05
3.98203e-05
4.23573e-06
4.6786e-06
3.99421e-05
4.88538e-06
3.96126e-05
3.96397e-05
3.92497e-05
3.96416e-05
5.01976e-06
5.3779e-06
3.98959e-05
5.17649e-06
4.69512e-06
4.00537e-05
5.87248e-06
5.15601e-06
5.67591e-06
4.83561e-06
5.32908e-06
3.89304e-05
6.3675e-06
4.00704e-05
5.61664e-06
6.17511e-06
6.50295e-06
6.86068e-06
2.19272e-05
6.0785e-06
6.67558e-06
7.35441e-06
2.42199e-05
7.17344e-06
6.53791e-06
7.84874e-06
7.67079e-06
6.99703e-06
7.98483e-06
8.34352e-06
8.16566e-06
7.45341e-06
8.83761e-06
9.33244e-06
7.91345e-06
8.66399e-06
9.46955e-06
8.37407e-06
9.16308e-06
9.82702e-06
8.0635e-06
8.82628e-06
1.03208e-05
9.66308e-06
8.83573e-06
1.08155e-05
9.29911e-06
1.0165e-05
1.13111e-05
1.09523e-05
1.06672e-05
9.7627e-06
1.03212e-05
9.44313e-06
1.1806e-05
1.02254e-05
1.11684e-05
1.16693e-05
1.06877e-05
1.22998e-05
1.21679e-05
1.11477e-05
1.27908e-05
1.26664e-05
1.16077e-05
1.32864e-05
1.20683e-05
1.31651e-05
1.19393e-05
6.50572e-06
2.31181e-05
2.36212e-05
2.22382e-05
2.00066e-05
2.15709e-05
2.74607e-06
2.45804e-06
1.11367e-05
1.21558e-05
6.16594e-06
5.60871e-06
1.34269e-05
2.20531e-05
2.05206e-05
9.46922e-06
1.97955e-05
1.25298e-05
2.30995e-05
1.36656e-05
3.57472e-06
2.38746e-05
1.69243e-05
1.54358e-05
9.27433e-07
7.88586e-07
2.10697e-05
2.17264e-06
1.09503e-05
1.06562e-05
9.75249e-06
2.01846e-05
1.85968e-05
2.1641e-05
1.37792e-05
1.76414e-05
1.62112e-05
2.8688e-05
1.91446e-05
1.76357e-05
6.52695e-06
7.98517e-06
9.15834e-06
8.37073e-06
7.16117e-06
1.36558e-05
1.25216e-05
2.25648e-05
4.19279e-06
3.7897e-06
2.12159e-05
5.03131e-06
2.35161e-05
2.59807e-05
5.17545e-06
4.69525e-06
2.60938e-05
1.82416e-06
1.61092e-06
2.44202e-05
8.15784e-06
7.44663e-06
2.77124e-05
2.11913e-05
1.76433e-05
1.8405e-05
1.91557e-05
1.86563e-05
1.71735e-05
2.14894e-05
1.61914e-05
1.48657e-05
1.96608e-05
1.9218e-05
1.29271e-05
2.06816e-05
2.01709e-05
2.43749e-05
1.87135e-05
1.81103e-05
1.72403e-05
1.29907e-05
1.49016e-05
2.37902e-05
1.90451e-05
1.39134e-05
1.57648e-05
1.85792e-05
2.07516e-05
1.67484e-05
1.6254e-05
2.13078e-05
1.95026e-05
1.34524e-05
1.51639e-05
1.4664e-05
1.82233e-05
1.56647e-05
1.61643e-05
1.41644e-05
1.5299e-05
1.93546e-05
1.67005e-05
1.43772e-05
1.77294e-05
2.02349e-05
1.52665e-05
2.33765e-05
2.2992e-05
1.39148e-05
2.17262e-05
1.97277e-05
2.10467e-05
1.66635e-05
1.63824e-05
1.46514e-05
1.34401e-05
1.7162e-05
2.16906e-05
1.57599e-05
1.78503e-05
2.30334e-05
1.81579e-05
1.61465e-05
1.48187e-05
1.48377e-05
2.34053e-05
1.42751e-05
1.62314e-05
2.26154e-05
1.47707e-05
2.18249e-05
1.99944e-05
2.44564e-05
2.21694e-05
2.12905e-05
1.76593e-05
2.36789e-05
2.21789e-05
2.37526e-05
2.27177e-05
2.18467e-05
1.99482e-05
3.96011e-05
2.0592e-05
2.07776e-05
2.03627e-05
2.08672e-05
3.97828e-05
3.99016e-05
3.97503e-05
2.25743e-05
3.99079e-05
4.00792e-05
3.97048e-05
1.96519e-05
3.97352e-05
3.96865e-05
4.0048e-05
3.98685e-05
3.9938e-05
2.32883e-05
3.94503e-05
2.06926e-05
3.96747e-05
3.97981e-05
3.97332e-05
3.93803e-05
3.95485e-05
3.83259e-05
2.01236e-05
2.29568e-05
3.97259e-05
3.95622e-05
2.30361e-05
3.97754e-05
3.96637e-05
2.02331e-05
3.98093e-05
3.95823e-05
4.00812e-05
4.00774e-05
4.00851e-05
3.98494e-05
3.96524e-05
3.98929e-05
3.9882e-05
3.79833e-05
3.96495e-05
3.9616e-05
3.9889e-05
3.87558e-05
1.80468e-05
1.66019e-05
3.98232e-05
3.99161e-05
4.01359e-05
4.00538e-05
2.23521e-05
3.95773e-05
4.00115e-05
3.95632e-05
3.9502e-05
4.00973e-05
3.8926e-05
3.98511e-05
3.94866e-05
3.97876e-05
3.97951e-05
3.95265e-05
3.98042e-05
3.9228e-05
4.00593e-05
3.98313e-05
3.9966e-05
3.9767e-05
3.96033e-05
3.94974e-05
3.97641e-05
3.98592e-05
3.97549e-05
3.9913e-05
3.99845e-05
3.98825e-05
3.99235e-05
3.99469e-05
3.98689e-05
3.92323e-05
3.97534e-05
3.99043e-05
3.98461e-05
2.06342e-05
1.9048e-05
3.99418e-05
3.98248e-05
3.94702e-05
3.97749e-05
3.98042e-05
3.99199e-05
3.99419e-05
3.99974e-05
3.97809e-05
3.99409e-05
2.03232e-05
3.97598e-05
4.0054e-05
3.97223e-05
3.99777e-05
3.91382e-05
4.00858e-05
3.91717e-05
3.98024e-05
3.98878e-05
3.96098e-05
3.97159e-05
4.00701e-05
3.94926e-05
3.94951e-05
3.98973e-05
4.00619e-05
3.97758e-05
4.00363e-05
4.00644e-05
4.00998e-05
2.48559e-05
4.00403e-05
4.01122e-05
4.01007e-05
3.99559e-05
3.98715e-05
3.98424e-05
3.99035e-05
3.99225e-05
4.01054e-05
4.0062e-05
3.99469e-05
3.98354e-05
3.98834e-05
4.01151e-05
4.00925e-05
4.00812e-05
4.00635e-05
3.97798e-05
4.00966e-05
4.00617e-05
4.00876e-05
3.97697e-05
3.94806e-05
3.98709e-05
3.98978e-05
1.65451e-05
1.51958e-05
4.00532e-05
4.00978e-05
3.98852e-05
3.98509e-05
3.97298e-05
3.99261e-05
2.03067e-05
1.87149e-05
3.99328e-05
3.88858e-05
3.98144e-05
2.42758e-05
4.00623e-05
3.9818e-05
2.11114e-05
1.953e-05
9.19287e-07
3.99088e-05
3.97968e-05
3.98327e-05
4.01061e-05
4.00948e-05
3.98921e-05
3.99012e-05
4.00863e-05
3.9937e-05
4.00534e-05
3.98178e-05
3.99941e-05
4.00496e-05
3.93765e-05
3.99143e-05
3.9933e-05
3.99008e-05
3.98393e-05
4.00962e-05
3.99174e-05
3.99089e-05
3.99921e-05
4.00116e-05
3.99195e-05
4.00784e-05
4.00941e-05
4.0092e-05
3.95673e-05
4.00897e-05
3.95015e-05
4.01011e-05
4.00608e-05
3.92562e-05
3.90289e-05
4.00634e-05
4.01049e-05
3.99009e-05
3.99127e-05
4.00138e-05
3.98024e-05
4.00977e-05
3.94246e-05
3.99633e-05
3.9952e-05
3.98265e-05
3.95338e-05
4.00639e-05
3.9915e-05
4.01024e-05
3.99566e-05
1.96738e-05
1.81145e-05
3.98274e-05
3.99258e-05
4.00304e-05
1.50487e-05
1.38076e-05
3.92653e-05
1.93477e-05
3.98197e-05
3.99969e-05
4.01e-05
3.98806e-05
3.99456e-05
4.00933e-05
4.00337e-05
3.97987e-05
4.00255e-05
3.98084e-05
4.00774e-05
3.99519e-05
3.99493e-05
1.98296e-05
3.99269e-05
4.00482e-05
3.98919e-05
4.01058e-05
3.93104e-05
3.99358e-05
3.99339e-05
4.01167e-05
3.98578e-05
3.89202e-05
3.98577e-05
3.86708e-05
3.977e-05
3.98986e-05
3.99629e-05
3.99792e-05
3.99775e-05
4.00541e-05
3.99851e-05
3.99956e-05
3.96755e-05
3.9927e-05
3.97269e-05
4.005e-05
4.00928e-05
4.01089e-05
3.98827e-05
4.01021e-05
4.00941e-05
3.99791e-05
3.99243e-05
4.01196e-05
4.00046e-05
3.9909e-05
4.01045e-05
3.98805e-05
3.98332e-05
2.14322e-05
4.00821e-05
4.00699e-05
4.0028e-05
4.0098e-05
4.00684e-05
3.97985e-05
3.98847e-05
3.98411e-05
4.00863e-05
4.00229e-05
4.00685e-05
3.95837e-05
4.0088e-05
3.97444e-05
4.00493e-05
3.9948e-05
4.00826e-05
4.00693e-05
4.00675e-05
3.98941e-05
3.98968e-05
3.99042e-05
4.00862e-05
3.99118e-05
3.99163e-05
3.9684e-05
3.93971e-05
4.00745e-05
4.00495e-05
3.99232e-05
4.00217e-05
3.98039e-05
3.90328e-05
1.93076e-05
1.77794e-05
3.99684e-05
3.99969e-05
1.88582e-05
3.99689e-05
3.97192e-05
4.01106e-05
3.98661e-05
4.01033e-05
3.99587e-05
4.00104e-05
3.99423e-05
2.08051e-05
1.91844e-05
4.01146e-05
4.00878e-05
4.00175e-05
3.99465e-05
4.00908e-05
4.00287e-05
3.99447e-05
3.99991e-05
3.99403e-05
3.99608e-05
3.99434e-05
1.9342e-05
3.99266e-05
3.99668e-05
3.99543e-05
4.00852e-05
3.98651e-05
4.01062e-05
3.91384e-05
4.0083e-05
3.99666e-05
2.77838e-05
4.01027e-05
3.98771e-05
4.01068e-05
3.9948e-05
3.99099e-05
3.95178e-05
4.01104e-05
4.00967e-05
3.98483e-05
4.01179e-05
3.9311e-05
4.00835e-05
3.99524e-05
3.989e-05
3.99588e-05
3.98885e-05
4.00898e-05
4.00787e-05
4.00319e-05
3.97339e-05
3.98988e-05
4.00735e-05
4.01084e-05
3.99396e-05
3.92719e-05
3.98537e-05
4.01209e-05
3.99514e-05
3.96253e-05
3.99223e-05
4.00991e-05
4.01114e-05
4.0092e-05
4.01141e-05
4.00706e-05
3.9837e-05
3.99351e-05
4.00913e-05
3.99433e-05
4.01113e-05
4.0115e-05
4.00805e-05
3.98818e-05
3.99834e-05
4.00907e-05
4.01057e-05
4.01149e-05
4.01157e-05
3.99362e-05
3.9898e-05
3.99217e-05
3.98287e-05
4.01016e-05
4.00229e-05
4.00811e-05
4.0084e-05
3.99825e-05
3.98516e-05
3.99628e-05
4.00246e-05
3.97985e-05
3.99897e-05
1.8689e-05
1.71924e-05
4.00783e-05
4.00662e-05
3.99276e-05
1.97418e-05
3.98774e-05
4.0059e-05
1.2555e-05
1.15051e-05
4.00712e-05
3.99132e-05
4.00858e-05
4.00084e-05
3.99968e-05
4.00703e-05
3.98813e-05
3.99797e-05
3.99589e-05
3.99388e-05
3.98777e-05
3.99731e-05
4.00458e-05
3.99398e-05
3.98496e-05
3.98693e-05
4.01082e-05
3.93918e-05
3.99913e-05
3.96797e-05
3.9629e-05
3.91982e-05
3.99016e-05
3.96513e-05
4.00677e-05
3.99149e-05
3.9668e-05
3.92658e-05
3.99502e-05
3.99164e-05
4.01047e-05
4.00686e-05
4.00093e-05
3.94205e-05
3.98969e-05
3.99591e-05
4.01112e-05
4.00764e-05
3.99276e-05
4.00702e-05
3.99454e-05
4.00442e-05
4.00677e-05
3.97803e-05
3.97791e-05
4.0067e-05
3.91499e-05
3.99389e-05
3.99755e-05
3.96427e-05
3.90515e-05
3.97886e-05
3.92475e-06
3.94662e-05
4.01176e-05
4.00709e-05
1.83082e-05
1.68437e-05
4.0108e-05
1.79154e-05
4.00343e-05
3.9171e-05
3.99855e-05
4.00126e-05
4.01048e-05
3.99424e-05
3.99264e-05
2.01593e-05
1.85801e-05
3.99739e-05
3.99348e-05
1.10548e-05
1.01202e-05
4.0041e-05
4.00849e-05
3.99375e-05
3.89857e-05
4.00458e-05
4.00225e-05
3.92791e-05
4.00475e-05
4.01143e-05
1.8883e-05
3.92373e-05
3.99485e-05
4.00385e-05
4.00904e-05
1.82199e-05
4.00459e-05
5.38909e-06
4.01097e-05
3.94328e-05
3.98244e-05
4.00824e-05
3.99829e-05
3.97985e-05
3.98821e-05
4.00752e-05
4.00652e-05
4.00565e-05
4.00497e-05
3.96463e-05
4.00343e-05
4.00532e-05
4.00882e-05
4.00371e-05
3.99207e-05
4.00885e-05
3.99924e-05
6.86646e-06
3.99944e-05
3.98651e-05
4.01009e-05
3.99262e-05
4.01082e-05
1.76908e-05
1.62619e-05
1.7387e-05
4.00625e-05
4.00374e-05
3.99888e-05
2.49826e-06
3.98925e-05
4.01016e-05
4.00963e-05
3.99546e-05
9.56069e-06
8.74152e-06
4.01081e-05
4.00849e-05
8.34693e-06
4.00466e-05
3.99094e-05
4.00881e-05
-1.23722e-07
-1.55584e-07
-1.34231e-07
3.99617e-05
4.0101e-05
4.00688e-05
3.93522e-05
3.99482e-05
3.98731e-05
4.00631e-05
3.94772e-05
2.49286e-05
3.98639e-05
3.9829e-05
1.67461e-05
3.98627e-05
3.89461e-05
3.99082e-05
4.00819e-05
4.00578e-05
4.00859e-05
3.95864e-05
3.99206e-05
1.14687e-06
1.03904e-06
9.82992e-06
3.99566e-05
3.99201e-05
2.56128e-05
4.00002e-05
3.99147e-05
4.00505e-05
4.00843e-05
4.0043e-05
1.73067e-05
1.59047e-05
4.00167e-05
4.00681e-05
4.00006e-05
4.0054e-05
4.00242e-05
3.99518e-05
4.00272e-05
1.98069e-05
1.82462e-05
3.9877e-05
3.99833e-05
4.00447e-05
4.0106e-05
4.00073e-05
4.01101e-05
4.00766e-05
4.00585e-05
3.99232e-05
3.95078e-05
4.01013e-05
4.00778e-05
3.98411e-05
3.9905e-05
3.98974e-05
4.0018e-05
3.98854e-05
1.52682e-05
4.01119e-05
2.79923e-06
3.11733e-06
3.99939e-05
1.64279e-05
1.66929e-05
1.53309e-05
3.98384e-05
4.00525e-05
3.96549e-05
3.99832e-05
4.00642e-05
4.00134e-05
3.98687e-05
4.0035e-05
4.00267e-05
4.01197e-05
3.97179e-05
4.0103e-05
3.98947e-05
4.00591e-05
1.8372e-05
3.99705e-05
3.93411e-05
4.00649e-05
3.9724e-05
4.0103e-05
3.99062e-05
3.9785e-05
4.00234e-05
4.00749e-05
1.45083e-06
1.26015e-06
3.9417e-05
1.59016e-05
3.95815e-05
4.00304e-05
4.01149e-05
3.98885e-05
3.99546e-05
3.99612e-05
4.00707e-05
4.01104e-05
1.91879e-05
1.76571e-05
1.78843e-05
3.99032e-05
4.01105e-05
4.00345e-05
4.0113e-05
3.93175e-05
4.00716e-05
4.00388e-05
4.01103e-05
3.99479e-05
3.99377e-05
3.99368e-05
3.93058e-05
1.58086e-05
1.45091e-05
4.01063e-05
4.00642e-05
4.00659e-05
4.00173e-05
3.99532e-05
3.99155e-05
4.00306e-05
4.01192e-05
4.00733e-05
4.00664e-05
3.98743e-05
4.00696e-05
3.99536e-05
1.49407e-05
4.00457e-05
1.51901e-05
1.39385e-05
3.99047e-05
3.92373e-05
3.99097e-05
4.00592e-05
4.01241e-05
4.01102e-05
3.99486e-05
1.88093e-05
1.7313e-05
1.74199e-05
4.00598e-05
4.0054e-05
1.44163e-05
1.4809e-05
1.35861e-05
3.95641e-05
3.99493e-05
3.99005e-05
3.99049e-05
3.99299e-05
3.99859e-05
4.00635e-05
3.9986e-05
4.0058e-05
3.88807e-05
1.39533e-05
3.98741e-05
4.01113e-05
4.00651e-05
1.41891e-05
1.3013e-05
4.00932e-05
4.00664e-05
4.00667e-05
1.81928e-05
1.673e-05
3.88088e-05
3.99424e-05
3.87276e-05
3.99043e-05
3.8928e-05
3.90032e-05
3.95182e-05
4.01173e-05
1.38098e-05
1.26631e-05
2.367e-05
1.689e-05
3.89591e-05
4.01024e-05
1.2935e-05
1.31907e-05
1.20913e-05
1.89952e-05
2.06071e-05
2.03403e-05
2.21601e-05
1.63956e-05
1.78083e-05
1.63722e-05
4.01066e-05
3.95332e-05
3.99502e-05
2.31654e-05
3.99078e-05
4.008e-05
1.24703e-05
1.28115e-05
1.17418e-05
4.01124e-05
4.00444e-05
4.00387e-05
3.66268e-05
2.90997e-05
4.01178e-05
3.98965e-05
4.01125e-05
1.43359e-06
1.19418e-05
3.99222e-05
1.21942e-05
1.11718e-05
4.00396e-05
3.90449e-05
4.00653e-05
1.5931e-05
1.71927e-05
1.57967e-05
1.14818e-05
3.77649e-05
1.18133e-05
1.08204e-05
3.97446e-05
3.99152e-05
3.99685e-05
3.99123e-05
3.92037e-05
3.99268e-05
4.01085e-05
4.00498e-05
4.0071e-05
1.11958e-05
1.02506e-05
3.98397e-05
3.99336e-05
2.97881e-05
4.01162e-05
1.68056e-05
1.54382e-05
3.97159e-05
3.7278e-05
1.04595e-05
1.08143e-05
9.89832e-06
3.98772e-05
4.0092e-05
4.01185e-05
4.0091e-05
4.01171e-05
3.98692e-05
3.88519e-05
3.97688e-05
3.99377e-05
1.54064e-05
3.99602e-05
4.01131e-05
9.99863e-06
4.01184e-05
4.00554e-05
1.29723e-06
3.99307e-05
3.99581e-05
3.99082e-05
3.99767e-05
3.99408e-05
3.9944e-05
2.3776e-05
1.4911e-05
4.00973e-05
4.00521e-05
1.63012e-05
1.49679e-05
3.87656e-05
4.00772e-05
4.00257e-05
4.00953e-05
9.69291e-06
8.8632e-06
4.00303e-05
3.99071e-05
4.00981e-05
4.0074e-05
3.99178e-05
3.99636e-05
3.99922e-05
3.99636e-05
4.01091e-05
8.97742e-06
3.96151e-05
2.70489e-05
9.32028e-06
8.51958e-06
2.38845e-05
3.99452e-05
3.22541e-05
3.99151e-05
3.91718e-05
3.91631e-05
1.44453e-05
8.51452e-06
1.57004e-05
1.44125e-05
3.75183e-05
4.01165e-05
3.9652e-05
4.00733e-05
3.99154e-05
4.00668e-05
8.19101e-06
7.47654e-06
3.99174e-05
3.95594e-05
3.99719e-05
4.01131e-05
3.99295e-05
7.49359e-06
3.98945e-05
1.39203e-05
7.81969e-06
7.1341e-06
1.53105e-05
1.40494e-05
3.99148e-05
4.01067e-05
4.00994e-05
4.00034e-05
7.03106e-06
4.00538e-05
7.19502e-06
6.55708e-06
3.99406e-05
3.9916e-05
4.0095e-05
3.99655e-05
3.99313e-05
6.8202e-06
6.21169e-06
1.46906e-05
1.34763e-05
3.99778e-05
3.99219e-05
3.99076e-05
4.01158e-05
6.01038e-06
4.00473e-05
6.19716e-06
5.63655e-06
4.00225e-05
1.34579e-05
3.99868e-05
4.00666e-05
4.00695e-05
3.99345e-05
3.99982e-05
4.01126e-05
5.54192e-06
5.82233e-06
5.29091e-06
4.00758e-05
1.29615e-05
3.98431e-05
4.00832e-05
1.43092e-05
1.31243e-05
3.99693e-05
3.99303e-05
3.99211e-05
4.5255e-06
3.97628e-05
4.68092e-06
4.2358e-06
1.24372e-05
1.36934e-05
1.25554e-05
1.94635e-05
2.11415e-05
3.99726e-05
4.31642e-06
3.9004e-06
3.97296e-05
4.04128e-06
3.94003e-05
4.00717e-05
2.07166e-05
2.2586e-05
4.00044e-05
2.56406e-05
3.81915e-05
3.91329e-05
3.65793e-06
3.28871e-06
2.33456e-05
3.53525e-05
4.00644e-05
3.98956e-05
3.99659e-05
3.99257e-05
1.19741e-05
1.87618e-06
1.65634e-06
3.99692e-05
1.33111e-05
1.22029e-05
3.30189e-06
2.96341e-06
4.00715e-05
3.989e-05
3.99248e-05
3.99235e-05
4.00685e-05
3.03201e-06
1.14461e-05
3.99451e-05
3.9967e-05
1.26954e-05
1.16343e-05
4.01187e-05
3.99755e-05
4.00543e-05
4.00395e-05
2.02892e-06
1.77561e-06
3.98788e-05
3.99806e-05
4.00298e-05
3.99951e-05
3.99938e-05
4.0055e-05
3.99135e-05
1.23131e-05
1.12817e-05
3.96009e-05
4.00744e-05
3.99683e-05
3.83517e-05
3.94215e-05
1.09867e-05
4.00785e-05
4.01209e-05
1.04892e-05
2.35976e-05
2.48443e-06
2.25728e-05
1.16969e-05
1.07129e-05
4.00329e-05
7.93202e-07
4.0101e-05
3.72499e-05
3.98261e-05
3.81869e-05
4.01226e-05
9.96319e-06
3.9969e-05
1.13136e-05
1.03593e-05
3.99308e-05
2.25235e-05
3.99365e-05
1.06944e-05
9.78743e-06
3.90763e-05
3.50868e-05
3.99451e-05
9.50415e-06
3.99592e-05
9.0058e-06
4.31543e-07
2.45288e-07
3.98536e-05
3.9937e-05
1.02029e-05
9.33511e-06
4.00351e-05
3.99435e-05
3.99712e-05
3.99276e-05
3.99383e-05
4.01071e-05
8.47928e-06
4.00156e-05
9.82234e-06
8.98301e-06
3.85958e-05
4.01099e-05
4.00762e-05
4.00776e-05
4.00604e-05
4.00521e-05
4.00572e-05
9.19075e-06
8.39905e-06
4.00101e-05
8.0194e-06
3.99585e-05
4.0083e-05
1.23405e-06
7.5224e-06
3.96664e-05
8.70339e-06
7.95093e-06
3.9614e-05
3.90771e-05
3.97697e-05
4.00821e-05
4.00762e-05
4.00545e-05
3.99499e-05
6.99765e-06
3.9818e-05
3.93673e-05
8.3234e-06
7.59921e-06
3.72846e-05
4.32047e-05
3.97561e-05
4.00782e-05
3.96184e-05
3.99894e-05
7.69481e-06
7.01828e-06
4.00157e-05
3.9604e-05
6.53477e-06
3.99289e-05
3.97111e-05
3.97234e-05
6.03466e-06
7.31908e-06
6.67202e-06
2.35961e-05
3.98315e-05
3.98029e-05
3.99833e-05
3.97119e-05
4.00621e-05
2.2239e-05
3.10568e-05
4.00732e-05
3.99678e-05
5.51411e-06
6.70034e-06
6.10091e-06
3.99937e-05
3.99702e-05
4.01031e-05
4.01162e-05
3.99742e-05
3.98976e-05
3.99788e-05
6.32167e-06
5.75168e-06
3.81758e-05
3.51956e-05
5.04513e-06
3.89771e-05
3.98421e-05
3.97688e-05
4.00751e-05
3.09568e-05
4.53997e-06
4.00218e-05
5.69475e-06
5.17243e-06
3.97498e-05
4.008e-05
4.02656e-06
5.20226e-06
4.71921e-06
3.98876e-05
3.00657e-05
3.76093e-05
3.99533e-05
3.99532e-05
4.00951e-05
4.82499e-06
4.37013e-06
2.13017e-05
4.00152e-05
3.97666e-05
3.99862e-05
3.99431e-05
3.53182e-06
3.97038e-05
4.17333e-06
3.76584e-06
4.00838e-05
3.99558e-05
3.01155e-06
3.97896e-05
4.00321e-05
2.57591e-05
3.80803e-06
3.43065e-06
4.00171e-05
3.99767e-05
3.97615e-05
2.53877e-06
3.96983e-05
7.92844e-07
7.71182e-07
8.82757e-07
3.96508e-05
3.14123e-06
2.81042e-06
2.08046e-05
3.99681e-05
3.98392e-05
3.99991e-05
3.96825e-05
3.99634e-05
3.99578e-05
3.99269e-05
2.61646e-06
2.32526e-06
3.99215e-05
3.85672e-05
3.98875e-05
3.19732e-05
2.31852e-06
2.0588e-06
3.98807e-05
3.99615e-05
2.39006e-05
3.99372e-05
3.99256e-05
3.99209e-05
3.97184e-05
2.76896e-05
3.9765e-05
3.52375e-05
3.99468e-05
2.2163e-05
4.00726e-05
3.99503e-05
3.97892e-05
4.01203e-05
3.81132e-05
3.68126e-05
3.76701e-05
3.47528e-05
3.9705e-05
4.00786e-05
1.94558e-06
3.9912e-05
3.99195e-05
1.52826e-06
1.31728e-06
2.38659e-05
7.73533e-07
4.00043e-05
3.66715e-05
4.00394e-05
3.96697e-05
4.00473e-05
3.98581e-05
3.8051e-05
2.28089e-05
4.0115e-05
3.98339e-05
3.94925e-05
3.92873e-05
3.9944e-05
4.00651e-05
4.01005e-05
2.57384e-05
1.33252e-06
2.49317e-05
3.8449e-05
3.98395e-05
9.94597e-07
3.87935e-07
5.24362e-07
4.00495e-05
4.00935e-05
3.98525e-05
4.00994e-05
3.96934e-05
2.34462e-05
1.33183e-06
1.39991e-06
1.22792e-06