/*--------------------------------*- C++ -*----------------------------------*\
  =========                 |
  \\      /  F ield         | OpenFOAM: The Open Source CFD Toolbox
   \\    /   O peration     | Website:  https://openfoam.org
    \\  /    A nd           | Version:  8
     \\/     M anipulation  |
\*---------------------------------------------------------------------------*/
FoamFile
{
    version     2.0;
    format      ascii;
    class       surfaceScalarField;
    location    "9.2";
    object      phi;
}
// * * * * * * * * * * * * * * * * * * * * * * * * * * * * * * * * * * * * * //

dimensions      [0 3 -1 0 0 0 0];

internalField   nonuniform List<scalar> 
9107
(
4.51218e-09
-1.13972e-09
1.22688e-09
-4.59934e-09
-4.84287e-09
4.85087e-09
-2.03406e-09
2.02606e-09
-1.89485e-09
4.72935e-09
-4.41697e-09
1.58247e-09
5.30641e-09
-1.2244e-09
-5.57924e-09
1.49723e-09
-1.91265e-09
-4.44501e-09
5.43171e-09
9.25942e-10
-5.76389e-09
5.59627e-09
7.32419e-11
9.43752e-11
5.99534e-09
-4.6339e-09
3.71213e-10
-1.73265e-09
-3.40366e-09
1.93185e-09
8.63133e-09
-7.15953e-09
5.71719e-09
-5.95368e-09
1.17576e-10
1.18914e-10
4.17612e-09
-4.64776e-09
6.01799e-12
4.65626e-10
5.77326e-09
-5.54578e-09
-1.53531e-10
-7.395e-11
-5.78632e-09
5.63353e-09
8.49566e-11
6.7826e-11
-5.36045e-09
4.11742e-09
1.31866e-09
-7.56318e-11
5.8943e-09
-5.80823e-09
-7.10673e-10
6.24609e-10
-7.58159e-09
6.68119e-10
1.66248e-09
5.25099e-09
3.54285e-09
3.11317e-09
-3.65368e-09
-3.00235e-09
6.70338e-09
-8.5736e-09
-5.54213e-10
2.42443e-09
-6.48797e-09
7.32839e-09
-9.41039e-10
1.0062e-10
6.22433e-09
-5.8681e-09
1.43829e-10
-5.00062e-10
2.20193e-09
-1.86076e-09
-2.54074e-09
2.19958e-09
-4.78552e-09
-8.29563e-10
2.73703e-10
5.34138e-09
5.58828e-09
-5.73558e-09
4.08886e-11
1.06412e-10
-5.16109e-09
-2.38568e-09
1.68428e-09
5.86249e-09
5.368e-09
-9.92911e-10
-4.65166e-09
2.76575e-10
1.03996e-09
-5.76931e-09
-4.20045e-10
5.1494e-09
4.27405e-09
-1.89755e-09
-4.12003e-09
1.74353e-09
-6.21416e-09
-2.15752e-09
7.90089e-10
3.71137e-09
-3.54492e-09
2.84578e-09
-3.01223e-09
-2.58799e-09
-3.2753e-09
3.40471e-09
2.45859e-09
1.60361e-09
4.61035e-09
-4.40703e-10
-4.80508e-09
5.65324e-09
-1.02348e-09
1.75328e-10
-1.83015e-09
-4.1301e-09
5.06171e-09
8.9854e-10
-4.89679e-09
3.28549e-09
-4.45387e-11
1.65584e-09
4.31831e-09
-4.87211e-09
4.61641e-10
9.21651e-11
5.43013e-09
-1.50816e-09
2.1833e-09
-6.10528e-09
1.58158e-09
2.72871e-09
-4.31029e-09
6.02763e-09
-7.77902e-11
-5.40556e-09
-5.44283e-10
-6.67698e-09
5.94456e-09
5.04766e-10
2.27658e-10
5.18251e-09
-9.10852e-10
-4.52725e-09
2.55597e-10
-1.46303e-08
-2.62443e-09
7.27728e-09
9.97743e-09
-1.43417e-08
3.8452e-10
-1.0987e-10
1.4067e-08
-2.37197e-09
2.79034e-09
3.12885e-09
-3.54722e-09
6.60551e-09
-1.14911e-10
-2.66266e-10
3.47025e-09
-3.92979e-09
-3.03423e-09
3.49377e-09
2.57604e-09
-3.37927e-09
3.58013e-09
-2.77689e-09
1.04016e-09
-5.44944e-09
-7.51806e-10
-3.52374e-09
3.80034e-09
-2.95155e-09
2.67495e-09
-4.96911e-09
4.63314e-09
4.23644e-11
2.93604e-10
-1.41277e-09
5.9669e-10
-5.34098e-09
6.15706e-09
3.78603e-09
-3.67171e-09
-3.07838e-09
2.96406e-09
-4.71441e-09
-4.28323e-10
-1.46652e-09
6.60925e-09
-6.58583e-10
9.23603e-12
1.20698e-10
1.03834e-09
2.73611e-10
8.31275e-11
3.45852e-09
-3.2737e-09
-1.02038e-08
1.0019e-08
-2.89953e-10
-7.33179e-11
-1.88066e-09
2.7914e-09
1.17319e-09
-2.08392e-09
-8.0786e-09
5.86655e-09
-7.33842e-10
2.94589e-09
7.4842e-09
-2.15438e-09
1.14781e-10
-5.4446e-09
-2.0687e-09
-2.23467e-09
1.84141e-09
2.46197e-09
1.18069e-10
-7.64101e-11
-6.82212e-10
1.07356e-09
-5.0435e-10
1.41982e-10
-3.8501e-11
4.00869e-10
-3.41973e-09
-3.32839e-09
3.12137e-09
3.62675e-09
-3.41564e-09
2.82149e-09
-2.92551e-09
3.51967e-09
-4.95669e-09
5.27296e-09
-4.72637e-10
1.56367e-10
4.92869e-10
7.67522e-10
5.86922e-09
-5.30004e-10
1.36417e-09
4.60903e-09
2.56459e-10
5.64637e-10
-1.20351e-08
-8.02289e-10
-1.50428e-09
-9.52979e-11
-8.03078e-11
3.99077e-09
-3.76069e-09
-2.12058e-10
-1.802e-11
2.44839e-09
2.27034e-09
-1.75408e-09
-2.96464e-09
-2.69934e-09
-3.37738e-09
2.93477e-09
3.14196e-09
-2.62528e-09
3.68037e-09
-3.34134e-09
2.28626e-09
6.87522e-09
3.01085e-09
-5.33537e-09
-4.5507e-09
4.97832e-10
-4.87811e-09
-5.88835e-10
-4.97945e-09
4.01579e-09
-3.72835e-10
1.3365e-09
-5.17291e-09
-5.33608e-09
5.22493e-09
5.28406e-09
-7.45325e-11
-1.15513e-10
2.39505e-09
-1.81595e-09
1.86929e-09
4.61656e-09
-7.47469e-10
3.25352e-10
-4.19445e-09
-3.40336e-09
-1.91661e-09
7.30234e-10
4.58974e-09
2.01999e-09
-4.71343e-09
-8.4968e-10
3.54311e-09
-2.02155e-09
2.61744e-09
-9.74919e-09
9.1533e-09
3.11018e-09
-3.31212e-09
4.24627e-09
-4.04433e-09
-3.83831e-09
3.9734e-09
2.83291e-09
-2.968e-09
1.20986e-10
5.62609e-09
-4.40664e-10
-4.66208e-09
-3.06008e-10
1.14027e-11
-5.20494e-09
4.39796e-09
-3.16693e-09
3.97391e-09
-3.55677e-09
-1.28577e-09
1.22105e-09
3.6215e-09
-3.61966e-10
-1.74279e-09
6.64307e-09
-4.53832e-09
-3.09828e-09
-4.02081e-09
4.01741e-09
3.10168e-09
3.06696e-09
-3.15249e-09
-3.66446e-09
3.74999e-09
-3.48362e-09
3.20121e-09
-4.27488e-09
4.55729e-09
-3.18691e-09
2.74184e-09
3.37425e-09
-2.92918e-09
7.47275e-10
-4.12914e-09
-1.74906e-10
-3.80906e-09
3.86473e-09
2.90557e-09
-2.96123e-09
-2.34641e-09
-5.01344e-09
5.31951e-09
2.04034e-09
3.71211e-09
3.62443e-09
-3.35559e-09
-3.98095e-09
-3.06812e-09
-3.77335e-09
3.78936e-09
3.05211e-09
1.32149e-08
2.63029e-09
-1.72494e-08
1.40425e-09
2.98567e-09
-3.07367e-09
-3.97629e-09
4.06428e-09
5.07434e-09
4.06444e-11
-3.4652e-10
-4.76846e-09
2.53922e-09
-2.84717e-09
-3.52452e-09
3.83247e-09
1.99544e-09
-4.77544e-09
-1.64994e-09
4.42994e-09
3.34803e-09
-3.17578e-09
2.8057e-09
-2.97795e-09
5.49849e-09
-6.27548e-10
2.03401e-10
3.66621e-09
-4.98435e-09
-4.85858e-09
6.17672e-09
2.00541e-09
-1.44974e-09
1.03351e-09
-1.58917e-09
3.04685e-09
-2.72466e-09
2.66347e-09
-3.01244e-09
-2.78589e-09
2.72466e-09
3.49021e-09
-3.3228e-09
-4.12117e-09
3.95377e-09
-4.81336e-09
4.14602e-09
6.29397e-11
6.04405e-10
3.09554e-09
-2.404e-09
-3.51255e-09
2.82101e-09
-2.49809e-09
-3.3702e-09
2.58953e-09
3.27876e-09
-1.68946e-09
3.50968e-09
3.05619e-09
-2.36435e-09
-3.45385e-09
2.76201e-09
2.81304e-09
-2.79944e-09
2.51323e-09
-2.52683e-09
-2.47608e-09
-2.45348e-09
2.07303e-09
2.85653e-09
4.10703e-09
-4.02804e-09
-3.09142e-09
7.22776e-10
2.10504e-09
-2.82781e-09
9.35537e-10
6.70268e-09
-4.89947e-09
-2.73874e-09
4.95351e-09
-1.23133e-09
1.98196e-09
-5.70414e-09
2.32784e-09
-2.48575e-09
2.56414e-09
-2.40622e-09
-5.17501e-10
9.32826e-11
-8.01313e-11
2.81455e-09
-2.86232e-09
-3.82138e-09
3.86915e-09
-3.23511e-09
3.11939e-09
4.27553e-09
-4.15981e-09
2.81547e-09
-2.6254e-09
2.08027e-09
-5.74927e-09
1.38167e-09
-4.00929e-10
4.76852e-09
3.36895e-09
4.58678e-09
-4.48343e-09
-3.47229e-09
-5.30061e-09
-1.12246e-09
5.0103e-09
4.44073e-10
2.41052e-10
2.81149e-09
6.16985e-09
-7.4467e-09
-1.53464e-09
3.50729e-09
-3.27141e-09
3.01817e-09
-3.25405e-09
4.85988e-09
-5.52917e-09
-3.49687e-09
4.16616e-09
-1.11073e-08
7.36375e-09
-1.1907e-08
1.56506e-08
-4.59822e-09
4.93813e-09
2.56777e-10
2.93077e-09
-3.04015e-09
2.70195e-09
-2.59257e-09
5.78083e-09
1.28455e-09
-2.64621e-10
-6.80076e-09
6.29882e-10
2.81517e-09
-3.71856e-09
2.73505e-10
3.74318e-09
-9.46945e-10
-3.1075e-09
3.11272e-10
-1.903e-09
2.34673e-09
-1.5074e-08
2.77206e-09
-2.98543e-09
2.70826e-09
-2.49488e-09
2.27651e-09
-2.32875e-09
9.36167e-10
-8.83923e-10
5.60907e-09
-5.38354e-09
5.2462e-10
-7.50146e-10
4.69311e-09
4.5095e-09
-3.55618e-09
-5.64644e-09
-4.84864e-09
1.30902e-09
5.55961e-09
4.12971e-09
-6.63424e-10
2.76895e-10
2.41724e-09
6.37328e-09
-2.17088e-09
-6.61964e-09
3.99643e-09
-4.6099e-09
1.0879e-09
-4.74431e-10
4.72044e-09
9.56354e-09
-4.17211e-09
-1.01119e-08
6.45077e-09
-5.63551e-09
6.24625e-11
-8.77717e-10
-2.80555e-09
3.90598e-09
3.34205e-09
-4.44247e-09
-7.47742e-10
4.59104e-09
-3.98718e-09
1.43878e-10
5.47724e-09
-7.29762e-11
-5.60557e-09
2.01306e-10
1.39504e-09
-4.23467e-09
-4.90257e-10
3.32989e-09
2.12927e-09
-7.63781e-10
5.50973e-09
-3.1021e-09
2.69298e-09
-2.659e-09
3.08448e-09
2.659e-09
-2.67653e-09
6.84381e-10
5.15727e-09
-6.35465e-10
-5.20619e-09
-2.01058e-09
9.56464e-10
-2.0123e-09
3.06642e-09
-2.73699e-09
3.76917e-09
3.3543e-09
-4.38648e-09
-4.19397e-09
4.66961e-09
1.49428e-10
-6.25068e-10
4.28581e-09
3.41139e-10
3.26566e-10
3.63809e-09
-3.80647e-09
5.13519e-09
-4.96681e-09
2.74076e-09
-2.79074e-09
2.5366e-09
-2.48663e-09
4.89699e-10
-5.75737e-10
-9.68076e-11
5.67528e-09
-7.39722e-09
1.81875e-09
5.58124e-09
-2.61118e-09
-5.07629e-09
2.10623e-09
3.3707e-09
-3.29318e-09
2.63611e-09
-2.71364e-09
-2.7399e-09
2.70577e-09
-3.51028e-09
3.54441e-09
4.89472e-09
-4.83617e-09
-2.36006e-10
1.7746e-10
2.76349e-11
-7.55875e-11
3.85181e-09
-3.84182e-09
2.92688e-09
-2.93687e-09
-2.32039e-09
3.52582e-09
2.6596e-09
-3.86504e-09
4.09379e-09
-4.04898e-09
3.04472e-09
-3.08953e-09
6.93438e-09
8.1665e-09
-1.0649e-08
-4.45191e-09
2.66668e-09
2.3023e-09
-2.42975e-09
1.29018e-09
-5.03081e-09
4.81618e-09
-1.07556e-09
-3.19239e-10
-4.66975e-09
4.86475e-09
1.24238e-10
-1.91619e-09
3.21488e-09
1.88471e-09
-3.1834e-09
4.82689e-09
-4.93393e-09
-1.13526e-10
2.20559e-10
3.01521e-09
1.57225e-09
3.65682e-09
-8.24428e-09
-5.61274e-09
-3.42472e-10
4.99637e-09
9.58839e-10
-3.53979e-09
3.8651e-09
2.14478e-09
-2.47008e-09
3.27008e-09
-1.05063e-08
-2.6909e-09
9.92708e-09
-3.68201e-09
3.81939e-09
4.02695e-09
-4.16433e-09
1.71902e-09
-4.85086e-09
3.47543e-09
2.97795e-09
-2.96317e-09
-2.50977e-09
2.09585e-09
4.12603e-09
2.40357e-09
-5.53319e-09
4.99231e-09
-5.76164e-09
-3.11518e-11
8.00475e-10
5.03246e-10
4.32996e-10
4.28353e-09
-5.21977e-09
-2.93348e-09
3.38337e-09
3.75269e-09
-4.20258e-09
5.3929e-09
-4.97838e-09
3.69696e-09
-4.11147e-09
-8.18022e-09
-3.00919e-09
6.65608e-09
4.53333e-09
-4.0286e-09
-3.88407e-10
-2.45075e-10
-2.95164e-09
3.10371e-09
2.51141e-09
-2.66347e-09
-5.81865e-09
-2.01265e-10
2.1168e-10
2.86272e-09
2.52683e-09
-2.57501e-09
4.60549e-09
1.69922e-10
-6.45704e-10
4.02909e-09
4.26451e-10
-5.11278e-09
6.57248e-10
6.28805e-09
1.38069e-09
-4.65788e-09
-1.70255e-09
8.38288e-09
2.80686e-09
-9.48719e-09
-3.91916e-09
3.97513e-09
-3.55358e-09
3.49761e-09
-5.16146e-09
-6.69568e-09
6.78946e-09
5.06769e-09
-3.15678e-09
-2.66611e-09
2.41952e-09
-1.33913e-08
-7.61141e-09
1.37911e-08
7.21161e-09
4.09397e-09
-4.07417e-09
3.07703e-09
-3.09683e-09
-2.22661e-09
4.09732e-09
-6.18268e-09
4.31197e-09
1.66234e-10
4.87731e-10
-5.2729e-09
4.61894e-09
-5.56309e-09
5.11924e-09
-3.67426e-09
4.11811e-09
-2.10594e-09
-9.78214e-09
6.37465e-09
5.51343e-09
-4.03989e-09
4.1351e-09
2.85701e-09
-2.98013e-09
2.59257e-09
-2.46945e-09
-5.26301e-09
5.26193e-09
1.27866e-10
-1.26791e-10
-3.92264e-09
1.1799e-09
2.74274e-09
3.74614e-09
-3.61541e-09
-2.48133e-09
2.77132e-09
3.9577e-09
3.03197e-09
-4.0589e-09
5.16201e-10
4.26778e-09
-4.74642e-09
-3.75592e-11
-1.35205e-09
-3.39017e-09
3.62553e-09
1.11669e-09
2.86818e-09
-2.09585e-09
-2.99894e-09
-5.03707e-09
-3.30033e-09
4.76835e-09
3.56905e-09
-1.19442e-08
2.74306e-10
-3.65195e-10
5.24453e-09
-4.82525e-09
-1.79404e-10
-2.39878e-10
5.01007e-09
1.04021e-10
-5.08602e-10
4.08071e-09
-4.0761e-09
3.08058e-09
-3.08518e-09
-5.6036e-10
-4.9574e-11
9.24331e-11
-4.04434e-09
5.13784e-09
2.9007e-10
-1.38357e-09
-5.22845e-09
3.82616e-10
4.87781e-09
-3.1972e-11
3.55445e-09
-2.6203e-09
3.77866e-09
-4.71281e-09
1.98253e-09
5.55176e-09
-9.60457e-10
-6.57383e-09
3.35888e-09
3.87602e-09
-3.91866e-09
-3.31625e-09
8.10085e-09
1.81992e-09
-7.64098e-09
-2.27979e-09
5.5022e-11
-5.5817e-10
5.03148e-10
-2.44404e-09
2.76325e-09
-3.02332e-09
-2.8057e-09
2.67653e-09
5.2172e-09
-8.2323e-11
-5.45411e-09
4.08416e-09
-4.08505e-09
-3.09178e-09
3.09267e-09
-6.25439e-10
1.20101e-10
1.99139e-09
-3.11458e-10
-1.65578e-09
-2.41582e-11
-5.49485e-09
4.968e-09
-3.85305e-09
4.3799e-09
2.68326e-09
3.62432e-09
-3.45109e-09
-2.8565e-09
3.21018e-09
-3.17299e-09
2.95536e-09
-2.99255e-09
3.38894e-09
3.37266e-09
-3.98954e-09
-3.3214e-09
-3.51927e-09
3.56037e-09
3.2803e-09
3.7426e-09
-3.73727e-09
3.45247e-09
-3.4578e-09
-3.54685e-09
3.87156e-09
-3.20639e-09
-2.95536e-09
2.92664e-09
-5.70597e-09
1.65763e-11
1.11495e-11
5.67825e-09
-5.47123e-09
1.6741e-11
-1.44855e-12
5.45594e-09
4.64169e-09
-2.60963e-11
1.18726e-11
-4.62746e-09
-4.53285e-09
7.48777e-12
-8.89858e-12
4.53426e-09
4.83718e-09
-1.94621e-13
-6.95127e-11
-4.76747e-09
4.7679e-09
5.14864e-13
-6.25697e-11
-4.70585e-09
4.89993e-09
-1.47654e-11
-1.20471e-11
-4.87312e-09
-5.50288e-09
-3.08334e-13
5.8799e-11
5.44439e-09
-1.43624e-08
1.14517e-08
1.00768e-09
-2.59792e-09
2.27493e-09
-2.3023e-09
3.29479e-09
4.35561e-09
-5.32256e-09
-3.68264e-09
2.76369e-09
3.73199e-09
-2.95612e-09
-4.03704e-09
3.54256e-09
3.4506e-09
-2.86716e-09
-3.92001e-09
3.34826e-09
3.43892e-09
4.20694e-09
-3.9146e-09
4.0407e-09
-4.33304e-09
3.83863e-09
-3.93626e-09
3.21898e-09
-3.12135e-09
-5.67707e-09
-1.36007e-10
7.74981e-11
-5.76939e-09
1.20483e-11
1.34246e-11
5.74392e-09
2.00061e-09
-9.75926e-09
9.07654e-09
-1.31789e-09
5.04847e-09
5.4775e-11
-1.37774e-10
-4.96547e-09
5.16878e-09
3.39495e-11
-1.1537e-10
-5.08736e-09
2.90279e-09
-3.77137e-09
-6.47061e-09
7.33919e-09
-2.07887e-09
-4.92737e-10
-6.00199e-09
1.63968e-09
-9.65895e-09
1.33753e-10
7.88552e-09
3.83782e-09
-4.44353e-09
-5.42727e-09
6.03298e-09
-9.54801e-09
3.32166e-09
-1.95387e-09
1.9472e-09
4.32042e-09
-6.153e-09
-1.14618e-10
4.07063e-09
-4.05688e-09
-3.09173e-09
3.07798e-09
-4.01753e-09
4.09488e-09
3.07482e-09
-3.15217e-09
-2.08469e-10
4.4376e-09
5.97766e-10
3.2304e-09
-4.26847e-09
3.73345e-09
-2.69538e-09
-3.18566e-09
-3.68799e-09
3.19101e-09
-1.24299e-09
5.57667e-10
4.5217e-09
8.80222e-10
-4.59551e-09
-8.06417e-10
-4.27749e-10
1.35683e-10
4.9011e-09
5.36096e-09
5.64633e-11
-4.79293e-10
-2.66458e-09
-2.55996e-09
2.48464e-09
-3.85332e-09
3.75875e-09
5.15353e-09
-5.05896e-09
-3.67932e-09
-2.20144e-09
2.54876e-09
3.332e-09
2.92545e-09
-2.56414e-09
7.19694e-09
-7.3497e-10
-1.94027e-09
3.78514e-09
-3.51862e-09
2.74783e-09
-3.01435e-09
-5.10684e-09
1.79253e-09
6.14234e-09
-2.82803e-09
-2.51323e-09
2.42975e-09
-5.82945e-10
2.47752e-11
-2.47117e-09
4.21578e-09
3.0221e-09
-4.76672e-09
-4.97394e-09
-3.72567e-09
5.15275e-09
-3.40896e-09
3.22169e-09
5.2295e-09
-5.04223e-09
2.93278e-09
-2.92088e-09
-6.74289e-09
-1.31769e-08
5.55742e-09
-7.50442e-09
3.96041e-09
7.02506e-09
-3.48105e-09
-4.32102e-09
-3.51654e-09
4.41326e-09
3.42431e-09
1.24554e-09
-9.82792e-10
4.65917e-09
-4.92191e-09
-3.8713e-09
-1.91416e-09
5.78547e-09
4.14522e-09
-9.90304e-11
-4.89514e-09
8.48956e-10
-1.22378e-10
8.31677e-11
2.81237e-09
1.98831e-09
-1.98703e-09
-2.81365e-09
-3.15936e-09
-3.63923e-09
4.32741e-09
3.80207e-09
3.25405e-09
-3.41803e-09
-1.03682e-09
-5.28202e-10
6.80955e-09
-3.73734e-09
4.00065e-09
4.77668e-09
-5.03998e-09
4.52681e-09
-4.962e-09
5.82809e-09
3.66332e-09
-5.04901e-09
-3.71862e-09
5.10431e-09
2.70378e-09
2.48663e-09
-2.48464e-09
-5.71075e-10
-1.18702e-11
-5.13396e-11
2.05152e-10
4.02271e-09
-4.17653e-09
-4.79653e-09
3.73836e-09
2.87225e-09
-1.81407e-09
2.75879e-09
2.55996e-09
-2.63549e-09
9.17989e-09
2.66608e-09
-1.82791e-09
-1.00181e-08
4.49832e-09
-4.59659e-09
-1.45595e-10
2.43861e-10
-1.02996e-09
2.14863e-09
6.07828e-09
3.69154e-09
-3.84194e-09
-3.07663e-09
3.22703e-09
-3.46919e-09
-3.04254e-09
4.02598e-09
7.1103e-09
-6.11817e-09
-1.06724e-09
7.51153e-11
-4.23517e-09
4.91293e-09
-4.80038e-09
4.12262e-09
-5.01775e-09
3.60029e-09
5.08367e-09
-3.78664e-09
-3.58384e-09
3.51716e-09
1.80413e-09
-2.12457e-09
4.18424e-09
-3.99024e-09
-3.27877e-09
3.08477e-09
5.12404e-09
-5.75901e-09
3.64197e-09
-3.68448e-09
-4.80403e-09
4.84655e-09
1.14696e-08
-2.6423e-09
-1.63829e-09
2.06474e-09
3.66931e-09
-3.60183e-09
4.86943e-09
-4.93691e-09
2.68636e-09
-5.64459e-09
5.76972e-09
-3.26781e-09
-3.01817e-09
2.96317e-09
-3.11684e-09
-3.98922e-09
-5.37437e-09
7.89428e-10
-7.43355e-10
5.3283e-09
-4.27137e-09
5.02027e-09
-3.21898e-09
2.47008e-09
6.55747e-10
5.99889e-09
-1.92311e-09
-4.73152e-09
3.65687e-09
-3.6575e-09
-4.80061e-09
4.80124e-09
2.43794e-09
-3.9476e-09
4.88037e-09
3.90929e-09
-3.68893e-09
3.70771e-09
-2.51848e-09
3.65842e-09
-4.12537e-09
2.30708e-09
3.79011e-09
-2.70826e-09
-4.03385e-09
-1.10022e-09
2.97892e-10
-5.06753e-09
5.36326e-09
-5.52627e-09
-3.46701e-09
4.00893e-09
-8.67537e-09
5.99833e-09
3.32283e-10
2.34476e-09
2.85463e-09
-1.20065e-10
-2.73456e-09
3.48897e-09
-3.02079e-09
3.15614e-09
4.125e-09
-4.96402e-09
-5.18065e-09
6.01968e-09
-3.95604e-09
-1.81089e-11
5.12794e-09
-1.15379e-09
4.05008e-09
3.10372e-09
-2.09065e-09
-5.06315e-09
-3.71882e-09
8.73241e-10
2.84558e-09
3.75155e-09
3.13158e-09
-3.21382e-09
2.65333e-09
9.53544e-10
-3.60688e-09
-5.3054e-09
4.90176e-09
3.97341e-09
-3.56977e-09
2.12722e-09
-1.68717e-09
-2.19414e-09
2.76445e-11
6.68184e-09
-6.58849e-09
-5.87912e-09
7.45576e-09
1.16542e-08
-1.32308e-08
5.23598e-09
1.50654e-12
9.88608e-11
-5.33634e-09
-2.56681e-09
-2.44656e-09
2.49488e-09
-8.26242e-09
7.65333e-09
7.60899e-10
-1.51805e-10
-3.95036e-09
3.81805e-09
2.9448e-09
-2.81249e-09
7.5612e-10
-5.05527e-10
-4.20459e-09
3.954e-09
-2.06072e-09
2.33697e-09
-5.40903e-09
5.13278e-09
2.92918e-09
-2.92664e-09
2.9685e-09
-3.16705e-09
5.47039e-09
-5.27184e-09
-1.91762e-09
5.03206e-09
3.83228e-11
-3.15276e-09
-7.09444e-10
5.00986e-09
-5.04815e-09
3.9028e-09
5.17364e-09
7.98843e-11
-2.43454e-10
1.76908e-11
-1.07057e-10
9.63936e-10
4.31476e-09
-3.78786e-09
-1.49084e-09
1.12019e-10
-6.15783e-09
6.27801e-09
-2.32201e-10
-1.24543e-11
-4.59727e-09
4.55959e-09
5.01287e-11
-4.60172e-11
-5.82031e-09
5.76565e-09
1.00681e-10
1.94196e-11
4.8884e-09
-4.81186e-09
-9.59581e-11
2.55621e-11
4.69342e-09
-4.56589e-09
-1.53093e-10
-3.85568e-09
3.02585e-11
4.42864e-09
-6.03211e-10
-2.86752e-12
4.67769e-09
-4.65454e-09
-2.02811e-11
1.5665e-12
-5.5648e-09
5.52924e-09
3.3994e-11
5.80265e-12
-6.06011e-09
6.11289e-09
-5.85799e-11
2.68818e-12
-4.55184e-09
4.5262e-09
2.29506e-11
-4.37812e-12
-5.75731e-09
5.7322e-09
2.948e-11
-4.03008e-09
4.4627e-11
4.64283e-09
-6.5738e-10
-9.64072e-13
-5.51973e-09
5.48515e-09
3.55414e-11
-3.83635e-09
3.21956e-11
4.38093e-09
-5.76777e-10
-1.48361e-12
4.6578e-09
-4.63484e-09
-2.14778e-11
-5.97394e-09
1.63225e-11
6.03473e-09
-7.71082e-11
1.17322e-11
-5.74383e-09
5.72726e-09
4.83871e-12
6.37321e-12
-5.48805e-09
5.46612e-09
1.55592e-11
1.45235e-11
-5.73827e-09
5.72193e-09
1.81534e-12
1.27405e-11
-5.73079e-09
5.70608e-09
1.19609e-11
7.54221e-09
-7.05202e-09
-6.4394e-10
1.53753e-10
-2.4549e-09
-7.83912e-09
8.59148e-09
3.70277e-09
-3.19747e-09
-3.25963e-09
2.75433e-09
-1.7247e-09
5.43286e-09
2.8827e-10
2.07543e-09
-2.12677e-09
5.94456e-09
-5.61998e-09
-7.93886e-10
4.69304e-10
-4.33951e-09
-2.71496e-11
-4.58592e-10
3.49708e-09
-3.98191e-09
4.24509e-09
-3.76026e-09
2.96484e-09
-4.07514e-09
-4.4546e-09
5.5649e-09
-5.17197e-09
5.41307e-09
6.28481e-09
-7.09609e-09
-1.95405e-09
2.76533e-09
2.90072e-09
-3.80529e-09
3.64533e-09
2.49561e-09
-7.64513e-09
4.91281e-09
2.36713e-10
2.21798e-09
-2.33151e-09
-8.16759e-10
1.70094e-09
5.06038e-09
-5.89507e-09
1.58557e-08
3.563e-09
-1.35236e-08
-2.00951e-09
-2.73266e-10
2.28278e-09
3.22976e-09
-3.92535e-09
5.22239e-09
4.05287e-09
-5.76912e-09
4.68109e-09
1.83315e-10
-5.67255e-10
3.58317e-09
3.51845e-10
-3.08034e-10
-5.57351e-10
5.13541e-10
-3.28047e-09
2.93729e-09
-2.61294e-09
-3.23785e-09
2.96051e-09
-2.58983e-09
-2.5366e-09
2.57501e-09
-3.10046e-09
2.78354e-09
-2.31744e-09
2.63437e-09
-4.23964e-09
-2.69011e-09
6.92975e-09
3.62177e-09
3.0952e-09
-3.66223e-09
3.58861e-09
-4.66065e-09
4.73427e-09
1.96603e-10
1.08511e-09
-1.32208e-09
4.0373e-11
-1.23764e-11
4.37112e-09
-4.29459e-09
-6.4148e-11
-3.47036e-09
4.55383e-09
3.2466e-09
-4.33007e-09
1.8494e-10
-2.9738e-10
-5.83341e-09
-4.07787e-09
2.99754e-09
6.91374e-09
5.07495e-09
5.34844e-11
-5.37389e-10
-4.56666e-09
1.63894e-09
4.74462e-09
-1.81691e-09
-2.41605e-09
-1.313e-08
1.03846e-08
6.04421e-09
-5.50726e-09
-5.00947e-09
4.47252e-09
2.75367e-09
-2.63611e-09
1.19595e-09
-1.2394e-09
1.46667e-08
-1.46233e-08
2.67524e-09
2.61294e-09
-3.1214e-09
-2.16677e-09
2.62774e-09
2.58983e-09
-3.08045e-09
-2.13712e-09
-4.05939e-09
2.28695e-10
4.51508e-09
4.41067e-09
-5.0159e-09
4.32631e-09
-4.93642e-09
-5.80569e-09
-8.33878e-10
4.76097e-09
1.8786e-09
-6.06036e-09
-1.54091e-10
5.90115e-09
3.13298e-10
-5.66033e-09
-5.72333e-11
5.55468e-09
1.62884e-10
-4.72733e-09
-5.35053e-11
4.63795e-09
1.42887e-10
2.45389e-09
-2.68989e-09
5.647e-09
-5.50135e-09
2.2856e-11
-5.55906e-09
5.56313e-09
-2.69256e-11
-4.65873e-12
4.91571e-09
-4.88801e-09
-2.30427e-11
1.83156e-11
4.66721e-09
-4.58737e-09
-9.81547e-11
-2.06658e-13
4.74091e-09
-4.7062e-09
-3.4501e-11
-2.52705e-12
4.70585e-09
-4.6806e-09
-2.27275e-11
-7.32859e-13
4.93601e-09
-4.90494e-09
-3.0337e-11
-4.05725e-09
1.24318e-10
4.75649e-09
-8.23564e-10
-7.77911e-11
-4.40946e-09
3.86414e-09
6.23116e-10
-5.28144e-09
6.98255e-09
-7.6388e-09
5.93769e-09
3.7833e-09
-3.75711e-09
-4.82572e-09
4.79953e-09
-1.32412e-09
1.61332e-08
-1.36131e-08
-3.63949e-09
3.49567e-09
-4.51144e-09
-2.90182e-09
3.91759e-09
-5.20342e-09
5.21253e-09
4.11541e-12
-1.32291e-11
-1.99457e-09
-1.82971e-10
2.17755e-09
-5.21792e-09
4.78794e-09
9.76972e-10
-5.46985e-10
3.95369e-09
-5.0616e-09
-3.75066e-09
-8.64013e-12
2.67966e-09
-2.67102e-09
3.73762e-09
-3.75524e-09
3.67128e-09
-4.90298e-09
4.97784e-09
-3.14647e-09
3.03179e-09
5.65301e-09
3.667e-11
-4.96203e-09
5.02975e-09
-1.04388e-10
3.69928e-11
-4.88848e-09
4.95293e-09
-1.01444e-10
-7.88871e-10
8.20711e-09
-1.63741e-09
5.27631e-09
3.11466e-11
-4.42707e-10
1.30176e-09
4.9366e-09
-1.43459e-09
-4.80378e-09
3.10153e-09
-3.39978e-09
-5.73186e-09
6.03011e-09
8.28837e-09
-1.06426e-08
5.81275e-09
5.80488e-09
2.64154e-09
-1.09953e-09
-7.34689e-09
4.14695e-09
-4.19418e-09
3.54289e-09
2.56211e-11
-5.30518e-09
5.35914e-09
-7.95811e-11
3.69568e-09
3.66341e-09
-1.31822e-08
1.53691e-08
-8.06595e-09
2.43128e-09
-6.32193e-09
5.9752e-09
-2.08454e-09
-3.13321e-09
4.2839e-09
-5.30398e-09
3.97958e-09
-2.9595e-09
4.08266e-09
3.06955e-09
-3.10652e-09
-4.04569e-09
-3.43856e-10
-5.34155e-09
4.56958e-10
2.29023e-10
-1.45944e-10
4.16991e-09
-4.25299e-09
5.32362e-09
-5.26325e-09
-6.90085e-11
-5.25236e-09
5.29359e-09
1.50805e-11
-5.63154e-11
4.86495e-10
-7.75844e-09
3.22761e-09
4.55941e-09
-4.11939e-09
-3.68143e-09
3.24141e-09
-5.25919e-09
5.06666e-09
-4.48497e-09
4.6775e-09
-2.9248e-09
2.95042e-09
7.56595e-09
-6.72971e-09
-1.48048e-09
6.44244e-10
2.16532e-09
-2.17769e-09
3.06944e-09
-3.00068e-09
4.0101e-09
-5.55345e-09
-3.25318e-09
-1.61755e-09
4.44073e-11
1.48999e-09
-2.84794e-09
3.753e-09
3.11492e-09
-3.41354e-09
-3.50667e-09
4.33998e-09
4.60986e-10
3.81811e-09
3.4578e-09
-3.51716e-09
-5.17193e-09
-3.50904e-09
4.4458e-09
-4.10847e-09
3.21382e-09
-2.70718e-09
1.4845e-08
-4.41497e-09
-1.63251e-08
4.15074e-09
-4.08451e-09
-2.11932e-10
4.11703e-09
-4.75446e-09
4.77132e-09
-3.31005e-09
-5.61273e-09
-3.21863e-10
9.5514e-10
-5.38122e-09
1.41489e-09
5.36137e-09
-5.40889e-09
-9.92398e-12
9.8459e-11
5.32035e-09
-3.77203e-09
-3.45247e-09
3.41803e-09
-4.52542e-09
1.65124e-11
-5.16993e-11
4.56061e-09
-4.53933e-09
1.34177e-11
8.07506e-12
4.51784e-09
-4.57733e-09
4.70176e-12
1.80254e-11
4.5546e-09
-5.4904e-09
2.04268e-11
-1.70542e-11
5.48702e-09
-4.58817e-09
1.58668e-11
-1.07286e-11
4.58303e-09
5.04762e-09
-1.43744e-11
1.70011e-11
-5.05024e-09
4.92328e-09
-2.14243e-11
4.3148e-13
-4.90229e-09
-5.25976e-09
8.89248e-11
-8.63738e-10
6.03457e-09
-4.37934e-09
-3.06388e-09
3.88963e-09
-5.69562e-09
-4.76186e-09
5.82382e-09
4.63366e-09
6.0814e-09
-1.77136e-09
8.83019e-10
-5.19306e-09
-2.72283e-09
2.80272e-09
-2.61881e-09
2.30683e-09
-4.03359e-09
7.96209e-09
-2.31615e-09
-4.64697e-11
1.73645e-10
3.81789e-09
-3.94506e-09
2.66097e-09
-2.53882e-09
3.68012e-09
-4.55297e-09
3.13303e-09
-2.26018e-09
-3.64945e-09
-5.34211e-09
9.21676e-11
6.04941e-09
-7.99474e-10
1.63494e-11
4.94604e-09
-5.53342e-09
5.71034e-10
-2.06535e-12
-5.3472e-09
5.98858e-09
-6.39313e-10
-1.50804e-11
-5.22335e-09
5.83024e-09
-5.91808e-10
5.08724e-09
-7.466e-09
-2.52126e-09
4.90002e-09
-3.61163e-10
6.47702e-09
-7.62985e-09
1.51399e-09
-9.73842e-09
3.71922e-09
-3.60972e-09
-4.68522e-09
3.54555e-09
4.74939e-09
4.20423e-09
-4.70535e-09
7.30144e-10
2.92088e-09
-3.03179e-09
-2.62301e-09
-8.64568e-12
2.63165e-09
-2.59492e-09
1.58852e-12
2.59333e-09
-2.58732e-09
6.86002e-12
2.58046e-09
-2.58582e-09
7.77857e-12
2.57804e-09
-2.5528e-09
6.43499e-12
2.54637e-09
3.12299e-10
1.89207e-09
-2.20437e-09
3.53991e-10
2.68563e-09
-3.03963e-09
7.79343e-10
2.11476e-09
-2.8941e-09
8.29105e-11
2.72631e-09
-2.80922e-09
2.46617e-09
5.55746e-11
-2.52174e-09
-2.1079e-11
-2.89334e-09
2.91442e-09
-2.6567e-09
-4.65571e-11
2.70326e-09
8.75702e-10
2.5207e-09
-3.3964e-09
-3.16055e-09
3.89534e-09
-3.75557e-09
2.10666e-09
5.77436e-09
-4.17825e-09
-4.51756e-09
3.83198e-10
1.46855e-11
5.93111e-09
-6.64732e-09
7.01528e-10
5.12248e-09
-4.83817e-09
-2.88016e-09
8.52334e-09
2.94829e-09
-5.1395e-09
6.16883e-10
4.66631e-09
-1.43692e-10
-4.73182e-09
1.22855e-10
-6.50798e-10
-3.12271e-10
-7.16476e-09
1.68732e-09
5.78971e-09
-3.72053e-09
3.82357e-09
-4.4e-09
4.29696e-09
4.87295e-10
-6.39673e-09
-7.06708e-10
6.61614e-09
-4.14512e-09
-3.85933e-09
4.80698e-09
-1.15937e-09
1.16213e-09
-4.64112e-09
4.63835e-09
-5.69975e-09
5.66401e-09
9.88363e-10
-2.45371e-09
5.85765e-09
-4.3923e-09
1.89466e-10
5.52037e-09
-7.20293e-10
-4.98954e-09
5.24404e-09
-5.21459e-09
1.03146e-11
-3.97558e-11
4.73467e-09
1.49476e-10
-4.00393e-09
-2.66103e-09
-8.39711e-11
2.745e-09
3.65324e-09
-3.62661e-09
4.78513e-09
-4.81176e-09
2.86385e-09
2.87007e-09
-2.70195e-09
-3.06274e-09
3.79143e-09
-3.63409e-09
3.46703e-09
4.08768e-09
-5.15174e-09
-4.01797e-09
-3.3492e-09
7.54533e-09
-1.94524e-09
-5.83588e-09
2.35795e-10
4.97685e-09
-6.22212e-09
-2.4702e-09
3.6745e-09
4.2834e-09
1.99153e-10
-3.51861e-09
9.45562e-09
-8.56663e-09
6.04539e-09
2.97163e-09
3.99386e-09
-2.86818e-09
-4.23252e-09
-3.8747e-09
4.32057e-09
3.41003e-11
2.97248e-09
-3.00658e-09
-5.98854e-12
2.91046e-09
-2.90447e-09
1.07167e-11
-2.6378e-09
2.62708e-09
6.20916e-12
-2.52429e-09
2.51808e-09
7.48351e-12
-2.5703e-09
2.56282e-09
1.74492e-11
-2.51493e-09
2.49748e-09
-1.18749e-11
3.0124e-09
-3.00053e-09
1.329e-11
-2.64604e-09
2.63275e-09
-8.1696e-12
-2.71841e-09
2.72658e-09
-1.10018e-11
2.50063e-09
-2.48963e-09
1.45655e-10
-4.94055e-09
-1.69867e-10
4.96476e-09
4.12484e-09
2.15465e-09
-2.75367e-09
-3.67287e-09
3.95121e-09
-3.19018e-09
2.91184e-09
5.66138e-10
1.06015e-10
-3.82291e-09
-3.64353e-09
3.84921e-09
3.61723e-09
3.63883e-09
-1.00766e-10
5.27866e-09
-5.43099e-09
2.53099e-10
-2.82041e-09
2.94827e-09
2.69278e-09
-2.79354e-09
6.81187e-10
3.27252e-09
-3.95371e-09
-4.3832e-09
4.31282e-09
3.97636e-09
-4.31846e-09
3.68893e-09
4.39871e-09
-1.24317e-10
-2.53671e-09
-1.22191e-09
-2.62799e-09
1.98813e-09
1.86177e-09
-6.15686e-10
-1.76329e-10
2.78341e-09
-4.05049e-09
2.90342e-09
-3.67664e-09
4.82371e-09
-5.83325e-09
7.39958e-09
-4.90429e-09
3.33796e-09
-1.11492e-10
1.33567e-09
-1.35457e-09
1.30388e-10
-5.4025e-11
-2.87077e-09
-3.4397e-09
3.48245e-09
4.47744e-09
-4.74934e-09
-5.84973e-10
3.70866e-10
3.56088e-10
3.91484e-11
-4.74685e-11
4.34845e-09
-2.06676e-09
4.00312e-09
-1.88643e-09
1.5435e-09
-3.23616e-09
3.57909e-09
3.68593e-09
1.13046e-09
-5.0162e-10
-3.71277e-09
-3.26867e-10
3.98982e-09
4.98196e-11
4.17348e-09
-4.74058e-09
4.88506e-09
-5.3178e-09
4.88597e-09
-4.57408e-09
4.93148e-09
3.45446e-09
-3.68791e-09
-4.69803e-09
3.30412e-09
-5.03882e-09
4.8835e-09
-1.41678e-09
-1.31707e-09
4.58073e-10
2.27578e-09
-9.92686e-14
-2.72099e-09
2.72109e-09
-1.43885e-11
-2.61085e-09
2.62524e-09
-1.18e-11
2.4478e-09
-2.436e-09
-1.36121e-11
2.90185e-09
-2.88824e-09
-7.96882e-14
2.45109e-09
-2.45102e-09
-2.79279e-12
2.44216e-09
-2.43936e-09
-3.95347e-12
2.45553e-09
-2.45158e-09
2.18481e-11
2.88057e-09
-2.90241e-09
-3.20124e-09
2.9352e-09
-3.58969e-09
3.85573e-09
2.17675e-09
-2.3227e-09
-7.49138e-09
5.35284e-09
4.84538e-10
1.654e-09
-3.44492e-09
-3.12059e-09
3.09515e-09
-6.6425e-11
5.12636e-09
1.39083e-09
3.1643e-09
-4.94547e-09
-2.33284e-09
4.11401e-09
-2.34778e-09
2.24875e-09
8.46706e-09
4.41987e-09
-5.51221e-09
5.62985e-09
-3.49552e-09
-3.00651e-11
-5.41009e-10
-4.68256e-09
-7.44096e-10
4.57899e-09
-9.45711e-10
1.52271e-09
-5.15599e-09
-6.51632e-10
-5.03695e-09
3.65225e-10
5.32335e-09
5.00974e-09
-5.25668e-09
-3.68932e-09
2.12311e-09
-2.83883e-09
-1.36761e-09
2.08333e-09
-2.75399e-09
3.7073e-09
-9.0319e-09
-1.78357e-11
5.06535e-09
-3.23832e-11
4.94128e-09
-3.25061e-09
-3.05603e-09
2.2939e-09
4.01274e-09
-2.85146e-11
-4.57145e-09
-2.5008e-11
-5.479e-09
-3.23116e-09
3.16474e-09
2.723e-09
1.31626e-10
-4.58595e-09
5.26481e-09
-3.52467e-09
4.35852e-09
3.61484e-09
-4.44869e-09
-3.46379e-09
-4.54533e-09
4.56942e-09
4.95644e-09
5.49024e-11
3.107e-09
4.12193e-09
-4.0728e-09
2.98812e-09
-2.68103e-09
-4.02763e-09
1.04033e-10
-5.49107e-09
1.48701e-11
-4.59228e-09
1.45466e-11
-4.55667e-09
-3.65895e-12
-4.52571e-09
-4.52588e-09
-1.82696e-11
4.00564e-09
5.38515e-10
-1.95293e-10
3.94708e-09
1.32316e-09
-1.85962e-10
4.11011e-09
1.35217e-09
-1.7299e-10
4.03116e-09
1.50279e-09
-1.06919e-09
8.09717e-09
-7.93291e-09
9.04941e-10
-3.99325e-09
8.55124e-09
-1.12537e-08
2.31204e-09
-1.9962e-09
2.31744e-09
-2.63328e-09
6.64909e-09
-5.24798e-09
-5.31333e-09
3.91223e-09
-8.00147e-10
-7.56862e-10
1.18985e-09
3.67159e-10
5.15738e-09
7.80299e-10
-5.85477e-09
-5.53549e-09
-5.37978e-10
6.05239e-09
1.25616e-10
5.16747e-09
-1.08886e-09
6.30365e-09
-1.46727e-09
-4.01173e-09
-2.77223e-09
3.5983e-09
3.68371e-09
-5.97733e-09
-3.01036e-09
2.60573e-10
4.44953e-09
-8.67028e-10
-3.84307e-09
-4.67429e-09
3.4235e-09
-5.51065e-09
4.02016e-09
-1.933e-09
3.7206e-09
2.72475e-09
-2.89091e-09
2.00664e-10
-4.96112e-09
6.28582e-09
-1.52537e-09
-4.44378e-09
-7.89242e-12
4.37833e-09
7.33469e-11
-5.66725e-09
-3.876e-09
5.31074e-09
-2.33133e-10
-5.80312e-09
1.5187e-09
-4.37211e-09
4.59887e-11
4.57064e-09
-2.44526e-10
4.78379e-09
-6.73512e-09
4.33201e-09
-2.38068e-09
-4.72802e-09
4.91241e-09
-2.87978e-09
2.69538e-09
4.41122e-09
-2.87881e-09
-4.30173e-09
2.76932e-09
3.90774e-09
-4.09088e-09
-5.32542e-09
-2.63486e-09
5.4799e-09
2.48038e-09
-5.72566e-09
-6.85754e-10
-1.07997e-09
-4.60413e-09
6.59192e-11
4.88317e-09
-3.44959e-10
4.04315e-09
-3.4794e-09