/*--------------------------------*- C++ -*----------------------------------*\
  =========                 |
  \\      /  F ield         | OpenFOAM: The Open Source CFD Toolbox
   \\    /   O peration     | Website:  https://openfoam.org
    \\  /    A nd           | Version:  8
     \\/     M anipulation  |
\*---------------------------------------------------------------------------*/
FoamFile
{
    version     2.0;
    format      ascii;
    class       surfaceScalarField;
    location    "9.2";
    object      phi;
}
// * * * * * * * * * * * * * * * * * * * * * * * * * * * * * * * * * * * * * //

dimensions      [0 3 -1 0 0 0 0];

internalField   nonuniform List<scalar> 
15173
(
6.66249e-09
-5.8682e-09
-2.2674e-10
-5.67549e-10
5.07033e-09
-1.59102e-10
9.83355e-11
-5.00956e-09
-3.40883e-11
5.22898e-09
-5.18065e-09
-1.42477e-11
8.52691e-09
-3.8026e-10
6.59256e-10
-8.80591e-09
-6.17187e-09
6.47959e-09
-2.52496e-10
-5.52243e-11
7.53703e-10
-9.28495e-09
9.06546e-09
-5.34213e-10
-4.29827e-09
-7.84351e-10
1.14499e-09
3.93762e-09
5.41759e-09
-5.44009e-09
4.08261e-10
-3.85756e-10
-2.03977e-09
2.16508e-09
6.35666e-11
-1.88884e-10
7.03006e-10
-3.36124e-10
4.58097e-09
-4.94785e-09
5.22198e-09
-5.24988e-09
6.85117e-11
-4.06052e-11
6.95857e-09
-7.6248e-11
-2.19827e-10
-2.57829e-09
2.46485e-09
-1.86106e-09
1.9745e-09
5.19933e-09
-5.16256e-09
2.96192e-10
-3.32963e-10
-4.79502e-09
5.05615e-09
5.69828e-11
-3.18118e-10
2.49985e-09
-2.75999e-09
2.60144e-10
5.1997e-09
1.13491e-10
-9.12177e-11
-3.95017e-10
-1.31395e-10
-4.26861e-09
8.13024e-10
-7.35556e-10
-7.74686e-11
-2.86971e-09
-8.82857e-10
1.37084e-09
2.38173e-09
2.07486e-09
-4.82821e-11
-2.10155e-09
7.49692e-11
-3.27733e-09
2.91171e-09
3.17678e-09
-2.81116e-09
-5.23794e-09
4.55006e-11
-5.74408e-11
6.11608e-09
4.39349e-10
-6.33667e-09
-2.18764e-10
7.06379e-09
6.49057e-10
-7.27702e-10
-6.98514e-09
-1.52837e-10
4.94974e-11
-5.54564e-11
1.58796e-10
5.20606e-09
-7.43352e-09
2.76267e-09
-5.35201e-10
-1.97135e-09
3.51281e-09
-2.24171e-09
7.00247e-10
8.0038e-09
-6.02051e-09
5.04764e-10
-2.48805e-09
-2.77787e-10
8.35641e-10
7.96905e-09
-5.97001e-09
-5.09064e-09
7.75609e-09
3.30455e-09
6.01615e-09
4.90359e-10
-8.36424e-11
-6.42287e-09
7.7766e-09
2.67265e-09
-8.83999e-09
-1.60927e-09
8.65308e-10
-1.23379e-09
5.37136e-09
-5.00287e-09
4.88953e-09
1.47826e-10
-4.92182e-09
-1.15539e-10
4.88495e-09
1.4347e-09
-6.32894e-09
9.29249e-12
4.94314e-09
-5.09812e-09
-9.3763e-11
2.4874e-10
-5.19522e-09
-6.90971e-09
3.12452e-09
8.98041e-09
-1.2751e-09
-8.70473e-09
8.30889e-09
1.67093e-09
-6.37033e-09
1.79898e-09
-2.81032e-10
4.85238e-09
5.15844e-09
-1.10693e-10
8.40683e-12
5.35991e-09
6.89671e-10
-5.06549e-10
-5.54303e-09
-6.55495e-09
6.51425e-09
-7.79249e-12
4.84907e-11
5.02108e-09
1.16613e-11
3.75828e-11
-1.84378e-09
1.93407e-10
-3.89388e-10
-3.59784e-09
1.79223e-10
-2.96562e-10
3.71518e-09
-1.29685e-10
9.1073e-11
2.74372e-09
1.62437e-10
-3.73037e-09
8.24214e-10
-5.65641e-09
-6.68822e-11
5.6892e-09
-1.16022e-10
2.9906e-10
-2.71217e-10
8.81792e-11
-1.69529e-09
-2.55693e-09
1.67392e-09
4.94143e-09
1.27964e-10
-4.83139e-11
6.2456e-09
2.9462e-10
-5.9017e-09
-6.38524e-10
6.70779e-10
-5.79741e-09
5.97181e-09
-8.45178e-10
-8.68548e-09
2.19396e-09
6.72458e-09
-2.33053e-10
8.02863e-10
-7.29904e-10
5.71212e-11
-1.3008e-10
-8.5286e-10
7.23679e-10
-2.92157e-09
3.05075e-09
5.25422e-10
-5.4077e-09
8.58458e-10
4.02382e-09
-6.45001e-09
6.56849e-09
-2.031e-10
8.46164e-11
-1.69676e-09
-7.48154e-10
1.82804e-09
6.16876e-10
6.43557e-09
-6.49446e-09
-3.44323e-11
9.3315e-11
-7.13461e-09
6.29871e-09
3.5215e-09
-2.68561e-09
-1.91373e-09
3.69238e-09
-3.65271e-09
1.87407e-09
3.66838e-09
4.99439e-09
-1.57952e-09
-7.08325e-09
-7.51887e-09
1.51531e-10
4.44396e-10
6.92294e-09
2.82527e-11
7.1362e-09
-6.68102e-11
-7.09764e-09
6.52027e-09
-6.50941e-09
1.73972e-11
-1.03743e-10
-5.96476e-10
8.25767e-11
6.17642e-10
2.00113e-09
-6.09701e-10
-5.68969e-09
7.5316e-11
-4.63316e-11
6.40659e-09
2.69596e-09
-2.6257e-09
-2.39325e-09
2.32299e-09
5.24862e-09
-2.00317e-10
-5.19244e-09
1.44139e-10
-3.36902e-10
1.23598e-09
7.2432e-09
-8.14228e-09
-1.68337e-09
8.89925e-10
-9.03313e-10
2.68023e-09
2.06793e-09
-2.0522e-09
-3.7903e-09
3.75181e-09
3.84913e-11
2.91235e-12
-1.64789e-11
-6.54138e-09
-5.02016e-11
6.99969e-11
-1.38247e-10
-5.55406e-09
6.46569e-10
5.04574e-09
-2.21328e-09
4.25225e-09
7.31771e-09
-3.48868e-09
-3.46811e-09
4.40577e-09
2.55103e-09
-7.16288e-09
7.39382e-09
-3.38129e-10
1.07191e-10
-1.01055e-09
8.9834e-10
-5.05035e-09
-3.60018e-09
4.51266e-09
3.53091e-09
-4.44339e-09
4.32425e-09
-3.97885e-09
-3.45397e-10
5.0411e-09
-1.21547e-10
-3.67154e-09
-1.24802e-09
2.09922e-09
3.89076e-09
-3.90351e-09
-2.08647e-09
-6.37467e-09
6.3995e-09
-3.06336e-11
5.80294e-12
-5.24629e-09
2.93147e-09
-2.63917e-09
4.954e-09
1.85519e-09
-3.41763e-09
-5.68645e-10
2.13109e-09
1.7003e-09
5.90683e-11
3.15493e-10
-4.99116e-09
5.00785e-09
1.88724e-11
-3.55565e-11
6.99662e-11
4.85995e-10
-8.70139e-11
-4.68947e-10
-6.42242e-09
-5.36382e-09
5.81624e-09
1.34202e-09
4.43586e-09
-4.16103e-09
-1.61685e-09
-4.96916e-09
2.41716e-09
-4.67513e-09
7.22713e-09
-1.8587e-10
6.35047e-10
-4.89159e-10
3.99823e-11
3.35234e-09
-5.30861e-09
-3.12838e-09
5.08465e-09
-3.20597e-09
3.32484e-09
2.42432e-09
-2.54318e-09
2.44205e-11
-3.81472e-09
6.55085e-09
1.39849e-09
-1.74599e-09
-6.20334e-09
6.44948e-09
-3.36799e-09
-4.15579e-09
1.07429e-09
4.8143e-09
1.64479e-09
-2.14058e-09
-4.31851e-09
7.95738e-09
8.68243e-10
-7.33052e-09
-1.4951e-09
3.1125e-09
2.68991e-10
-6.81935e-10
-2.69956e-09
7.69013e-09
-8.02703e-09
-4.23465e-10
6.91288e-11
4.24303e-10
-2.59908e-09
-2.58728e-09
2.56066e-09
5.57894e-09
-4.80907e-09
-4.67973e-09
3.90986e-09
-4.73154e-09
4.62632e-09
1.97116e-10
-9.19028e-11
5.73796e-09
-5.47741e-09
4.96578e-09
-5.22633e-09
-1.90296e-09
1.69983e-09
4.81922e-09
-4.61609e-09
-7.38694e-09
-2.65008e-09
2.90242e-09
5.33967e-09
-9.20615e-11
7.05318e-12
-5.25466e-09
2.86299e-09
-3.90358e-10
1.30583e-09
-3.77846e-09
6.73637e-09
1.76318e-12
-8.14598e-11
-6.65668e-09
-5.71706e-09
-2.69971e-09
3.17047e-09
-6.95186e-09
5.7911e-11
6.93361e-09
-3.96606e-11
-1.31921e-10
9.9257e-10
2.25185e-09
-4.9052e-09
4.93463e-09
3.33175e-11
-6.27511e-11
-7.6217e-10
-5.47182e-09
6.21203e-11
-6.5934e-09
-6.10066e-10
8.13566e-10
6.3899e-09
1.9021e-10
5.35269e-09
-4.34014e-10
-5.10889e-09
2.97112e-10
5.8951e-09
-6.0466e-09
-1.45606e-10
3.92984e-09
-3.47214e-09
-1.66532e-09
1.20762e-09
-3.16167e-09
1.65189e-11
2.29229e-09
-5.49537e-09
-3.51949e-10
4.94618e-09
9.0114e-10
-7.12841e-10
7.98454e-10
-4.15004e-09
4.06443e-09
-1.47226e-09
6.36808e-10
-4.14732e-09
4.98276e-09
1.14401e-09
-8.97931e-09
8.589e-09
-4.96872e-09
3.4757e-11
-5.71975e-11
3.26769e-09
-2.51846e-09
1.80393e-09
-2.55316e-09
1.68179e-09
-1.11668e-09
-3.61621e-09
3.0511e-09
-6.26924e-09
-8.58463e-10
6.36553e-09
-4.94319e-09
-1.9815e-10
5.0168e-11
5.09118e-09
4.7883e-09
2.63457e-10
-1.08621e-10
9.41442e-09
9.05325e-10
-9.02866e-09
-1.29109e-09
-2.1872e-09
-3.88067e-09
4.2299e-09
1.83797e-09
1.08686e-10
-4.83631e-11
-6.38475e-09
5.00076e-12
5.08205e-12
3.1352e-09
2.86085e-09
-2.06621e-09
-5.47913e-10
5.18502e-10
-4.8823e-09
4.91171e-09
-4.75394e-09
3.73036e-09
-3.75238e-10
1.39882e-09
1.11979e-08
-6.66792e-09
-7.34406e-09
2.81405e-09
-6.45126e-11
5.25589e-10
2.49182e-11
7.46624e-09
-2.35036e-09
1.77201e-09
-6.88788e-09
1.27215e-09
5.27495e-09
-1.18719e-09
-4.75621e-09
-2.97162e-10
1.10183e-10
5.94244e-09
-5.54063e-09
2.26857e-09
-2.67038e-09
-4.35998e-09
-8.55746e-10
4.50288e-09
5.81236e-09
-6.95436e-09
-1.32336e-10
1.27434e-09
-3.31627e-09
-3.17076e-09
2.75281e-09
3.73421e-09
5.01077e-09
-2.75292e-09
-3.3897e-09
1.13185e-09
-4.80647e-09
4.83903e-09
3.46994e-11
-6.72673e-11
6.48469e-09
-1.0419e-11
-3.81779e-12
-6.47045e-09
-4.70616e-09
4.70504e-09
-1.94079e-11
2.05281e-11
9.89766e-10
-1.76345e-09
-2.2387e-09
3.01239e-09
-5.13163e-10
2.52504e-09
1.25581e-09
-5.23789e-09
5.23088e-09
-2.2764e-11
2.97784e-11
-5.36929e-09
5.55861e-09
-2.40643e-10
5.13252e-11
-1.12837e-09
3.80027e-09
-5.93138e-10
-2.07877e-09
-4.75832e-09
4.74106e-09
-2.88138e-11
4.60836e-11
1.95123e-09
7.14294e-09
-7.44023e-09
-1.65395e-09
-4.82826e-09
4.8022e-09
-3.36097e-11
5.96749e-11
-5.19785e-09
5.16044e-09
-3.23264e-11
6.97366e-11
5.36752e-09
2.80581e-10
-2.30516e-10
4.1072e-09
-4.16606e-09
-3.54132e-09
1.58435e-09
-2.22019e-09
-1.07181e-08
5.1355e-10
-5.69595e-09
-3.86346e-10
5.56875e-09
-4.88795e-09
4.87124e-09
-2.89358e-11
4.56446e-11
-5.32859e-09
5.29347e-09
1.8814e-10
-1.53021e-10
-5.09861e-09
5.06792e-09
-3.12424e-11
6.19258e-11
-4.92813e-09
4.91632e-09
-2.47915e-11
3.66033e-11
2.8531e-09
-4.05099e-09
2.15749e-09
-9.59598e-10
-5.00431e-09
4.98131e-09
-3.11909e-11
5.41908e-11
-1.23187e-09
2.8385e-09
-2.735e-09
-2.06587e-10
-4.28279e-09
4.48938e-09
-2.16689e-09
6.71837e-10
-6.0887e-10
2.10392e-09
-1.69019e-11
3.75709e-09
-3.74019e-09
-4.87256e-11
-3.32434e-11
7.04054e-09
-1.67234e-10
4.49148e-09
3.33585e-09
2.87122e-09
-3.01301e-09
-3.19406e-09
-1.8526e-09
9.10728e-10
-9.8358e-10
1.92546e-09
6.24015e-12
-1.51491e-11
-4.69021e-09
5.47478e-11
-1.48829e-10
4.78429e-09
3.12167e-09
-2.67977e-09
1.66197e-09
-2.10386e-09
-4.052e-10
7.17576e-11
-9.00225e-11
-5.57839e-09
4.27366e-09
-5.98229e-10
3.55168e-09
-3.53148e-09
-2.01974e-11
-3.71276e-09
3.82579e-09
1.74216e-09
5.22191e-09
4.85048e-11
-2.17967e-11
-1.89938e-10
-2.71518e-09
2.90512e-09
8.46206e-09
-5.42794e-09
-3.47974e-09
4.45622e-10
1.85973e-09
2.14276e-10
-3.30588e-09
-3.27437e-11
2.04389e-10
5.0335e-09
-5.20515e-09
-1.01636e-09
1.08898e-09
9.8534e-10
-1.05796e-09
-3.19567e-11
2.53675e-10
-2.43186e-11
-1.974e-10
-1.10705e-09
-3.37438e-09
1.61172e-09
-6.37744e-09
-3.43703e-12
-3.87843e-12
-4.58383e-09
-3.82098e-10
2.09712e-10
4.84319e-09
-8.06432e-11
1.78884e-10
2.86279e-11
-7.91397e-11
6.26121e-11
-2.73131e-11
4.97255e-09
-2.18022e-10
2.02721e-10
-6.50135e-09
6.51665e-09
-7.16393e-11
-4.59657e-09
4.66821e-09
-8.86348e-10
8.69139e-10
-9.99148e-10
6.84318e-09
-4.10337e-10
1.35651e-10
6.30827e-10
-1.16506e-10
-1.88332e-09
1.369e-09
7.5756e-11
1.64791e-10
-6.41445e-11
-1.76403e-10
-4.86641e-09
2.62796e-11
-6.50743e-11
2.67849e-09
-2.4392e-09
-5.85065e-09
5.61137e-09
2.01044e-10
-8.93888e-11
1.98626e-09
-1.6524e-09
-3.33863e-10
-1.5816e-09
9.49631e-10
7.69576e-09
-6.40694e-09
-5.26745e-11
6.44271e-09
-5.09594e-10
2.98261e-10
-4.37249e-09
-1.30721e-09
1.81257e-09
-5.2593e-09
-6.40637e-09
6.33821e-09
-1.49868e-10
1.32693e-11
1.41809e-11
-2.74503e-11
-6.46422e-09
7.11482e-10
6.42352e-09
-5.077e-09
1.4514e-09
2.86026e-09
7.65337e-10
5.11523e-09
5.15285e-10
-4.11871e-09
-1.5118e-09
6.2238e-09
3.67939e-09
-5.2211e-09
5.26543e-11
-2.94117e-11
3.43157e-09
5.77307e-09
-5.61973e-09
-3.58491e-09
-6.20856e-09
-5.64294e-09
5.42908e-09
-7.4947e-09
1.64265e-09
-1.50232e-09
7.35437e-09
1.39344e-11
6.53075e-09
3.61529e-11
-2.63732e-11
3.54679e-09
5.34702e-09
-2.5951e-09
3.92232e-09
-1.1228e-10
-4.24138e-09
4.31339e-10
6.61786e-11
-1.22799e-10
-3.4858e-10
-1.95355e-10
2.22905e-11
-4.70729e-11
2.20138e-10
1.51799e-10
-5.67222e-09
5.6686e-09
-1.48178e-10
3.28459e-09
-3.00375e-09
3.26326e-09
-3.5441e-09
-6.38474e-09
-6.45167e-11
4.23139e-11
-5.38442e-09
-7.33606e-10
5.59847e-09
5.19556e-10
1.62269e-09
-4.63891e-09
-1.82989e-09
4.84611e-09
-1.03196e-11
6.73151e-12
6.48828e-09
8.25392e-09
-7.05239e-09
-3.60433e-10
-8.411e-10
6.20242e-09
-6.11221e-09
1.12509e-10
4.54531e-09
-4.68016e-09
-5.73686e-11
1.92217e-10
2.34589e-10
6.43681e-09
-4.68971e-10
-4.38819e-09
-6.87008e-11
8.19133e-11
4.37498e-09
-4.46656e-09
2.04243e-09
3.87273e-09
-1.44861e-09
3.77524e-09
-1.81479e-11
-9.39931e-09
-7.99075e-11
8.76479e-09
7.14429e-10
-5.97395e-09
-4.46166e-09
5.24039e-09
-4.44538e-09
3.94768e-11
4.40653e-09
-6.23266e-13
-2.45207e-10
5.40097e-09
-5.28108e-09
1.25311e-10
1.53551e-09
7.11508e-09
-8.65424e-09
3.65722e-12
1.71213e-10
-1.48129e-10
1.97842e-11
-4.28685e-11
-3.01669e-11
3.58184e-09
6.33949e-09
-6.32236e-09
-5.63381e-11
3.92086e-11
-3.42237e-09
1.01046e-10
3.32133e-09
6.49304e-09
-5.46192e-10
3.48745e-10
-6.2956e-09
4.2741e-09
-2.4815e-09
-3.9798e-09
2.93602e-11
-7.46051e-11
1.17925e-08
4.00713e-10
-4.23587e-09
4.74436e-09
-3.36144e-09
1.53096e-09
-2.91388e-09
5.9719e-09
1.22585e-09
-1.47559e-09
-5.72217e-09
-3.35283e-09
2.99939e-09
1.40037e-09
-1.04693e-09
-4.01414e-10
-6.67706e-09
3.06174e-10
6.7723e-09
-6.23159e-09
6.25227e-09
-5.42353e-11
3.35499e-11
6.54343e-09
-1.93476e-11
1.1232e-10
-6.6364e-09
-6.47471e-09
1.50361e-10
6.80352e-09
-4.79175e-10
8.08659e-10
-8.9632e-10
-7.98686e-10
-5.13122e-09
6.36982e-11
-3.10863e-11
-4.50898e-11
2.09481e-11
-4.53377e-09
1.18657e-09
4.96989e-09
-3.19081e-09
-2.80175e-09
3.73979e-09
2.25278e-09
-1.91523e-10
2.13315e-10
-2.1792e-11
2.7495e-09
-2.64516e-09
-2.70342e-09
-1.84631e-09
-5.57255e-09
9.49105e-10
6.46975e-09
-6.15684e-09
6.17755e-09
-3.87283e-11
1.80223e-11
2.95572e-09
-5.11232e-09
4.25582e-09
4.56817e-11
-6.49091e-09
6.47325e-09
-2.80258e-11
-5.68154e-09
1.38842e-10
5.6945e-09
-1.96332e-09
-3.55844e-09
1.54787e-09
3.9739e-09
3.00662e-09
-3.03936e-09
6.67029e-09
-6.66525e-09
-1.04419e-11
5.4025e-12
-6.29214e-09
-6.24589e-11
3.22395e-11
-6.6489e-11
3.24013e-11
1.44009e-09
-4.27857e-09
-2.23851e-09
-1.96564e-09
4.21914e-09
-1.27768e-09
1.27468e-09
1.09198e-09
-1.74899e-09
1.98681e-09
-3.20392e-09
2.9661e-09
4.22956e-12
-2.38067e-10
-5.71613e-09
5.94997e-09
-6.66442e-09
1.59711e-10
-1.50116e-10
6.65482e-09
-4.75992e-09
3.69406e-11
-8.34908e-11
-1.2615e-10
1.87544e-11
-4.07338e-11
-5.23849e-09
5.4124e-09
2.46676e-09
-2.64067e-09
-2.49749e-09
-8.36127e-09
5.43082e-09
5.48304e-09
5.7325e-10
-2.43936e-10
4.22295e-09
-3.30002e-09
-1.53757e-09
6.14645e-10
3.94904e-10
5.64553e-09
-2.82832e-09
-3.21211e-09
-4.23701e-09
-4.09158e-11
3.45113e-11
4.24342e-09
-7.92006e-09
4.60732e-09
-3.84343e-09
7.15617e-09
2.43116e-09
-2.60608e-09
-4.85012e-09
5.02504e-09
6.08002e-09
-5.2989e-12
-6.09278e-09
1.80639e-11
-2.32314e-09
1.95833e-09
2.51442e-10
3.7442e-09
2.53997e-11
-4.02104e-09
1.13636e-10
4.4255e-09
6.17625e-12
-7.59775e-12
-5.98025e-09
5.97656e-09
1.12825e-11
2.25249e-09
-3.36043e-09
1.65756e-09
-5.49621e-10
1.74705e-10
-4.00231e-09
4.27267e-09
-4.4506e-10
1.79179e-11
-3.93418e-11
-1.04726e-10
4.98276e-09
5.66431e-10
-1.07541e-09
-4.47378e-09
3.0855e-09
-2.66935e-09
-3.20511e-09
2.78895e-09
-5.00253e-09
4.94043e-10
4.18117e-09
3.2732e-10
2.77568e-09
-1.46738e-09
1.09491e-09
-2.4032e-09
-4.63415e-09
5.23541e-09
2.52077e-09
-6.45598e-09
-1.78184e-09
-1.47117e-09
2.28132e-09
2.949e-09
-3.75915e-09
-2.29627e-09
-7.51557e-10
8.80938e-10
2.45668e-09
-2.83789e-09
-2.30778e-09
2.68899e-09
6.46693e-11
-3.54454e-11
2.99067e-09
-2.80046e-09
-2.39712e-09
-4.81532e-09
3.20978e-09
4.00266e-09
3.43001e-09
-3.40756e-09
-2.24473e-11
6.0978e-10
2.292e-09
-1.76484e-09
-1.13694e-09
-2.03794e-09
5.97109e-10
2.05061e-09
-5.03653e-09
6.09129e-11
-2.86892e-11
-6.20317e-09
-5.6169e-11
2.77528e-11
2.93558e-09
2.36318e-10
-2.44822e-09
4.12952e-09
7.31528e-10
-4.03635e-09
-8.24693e-10
-3.92587e-10
7.38427e-10
-3.4584e-10
-1.41274e-09
-2.75815e-09
2.57175e-09
1.59914e-09
-5.34557e-09
4.69004e-09
6.98919e-10
-4.33909e-11
1.89622e-10
1.58005e-09
-9.5179e-12
-1.76015e-09
-7.7518e-11
-3.06204e-09
3.13955e-09
2.65036e-11
-6.63713e-11
6.19628e-09
8.85532e-10
-2.15278e-10
-6.86654e-09
5.62901e-09
-6.67589e-09
4.31734e-09
-3.27046e-09
-1.45775e-09
4.8434e-09
-5.23196e-09
-1.37642e-09
-4.01823e-09
1.68189e-09
5.90896e-09
-7.15656e-10
-5.35183e-09
1.58525e-10
4.05321e-09
8.74344e-11
-6.57316e-12
-4.13407e-09
-1.12655e-09
1.15174e-09
-5.96963e-09
5.94443e-09
-1.40818e-09
-3.56135e-09
1.6167e-09
-3.34347e-09
1.49061e-09
3.12718e-09
-1.27432e-09
-4.14773e-11
-5.98307e-09
6.01008e-09
1.44671e-11
-3.82137e-10
1.44417e-09
-2.25343e-09
1.19139e-09
1.86559e-10
5.37079e-09
-4.98871e-09
-5.68643e-10
-3.67831e-09
1.93422e-09
-2.13659e-09
2.85447e-09
7.01489e-09
-3.34672e-09
-6.52265e-09
2.28725e-09
4.89179e-09
-2.09481e-09
-5.08423e-09
-4.07851e-09
6.15647e-09
1.61756e-09
-3.69551e-09
-2.20896e-09
2.32545e-09
2.96902e-09
7.00035e-09
-1.39833e-09
-6.96776e-09
1.36574e-09
-7.19518e-09
7.31681e-09
-2.03344e-09
1.91181e-09
6.46195e-09
-6.43582e-09
-3.37343e-11
-1.89571e-09
1.6758e-09
4.09532e-10
-2.64183e-09
2.53888e-09
-1.59234e-09
1.23235e-10
3.41526e-09
-3.5385e-09
-1.92893e-10
2.12321e-10
-8.67191e-10
8.47763e-10
5.18134e-09
-4.08302e-09
-1.88268e-09
1.45705e-09
4.0737e-09
-5.35604e-09
-5.98838e-09
5.72366e-09
1.22065e-09
-9.55926e-10
-5.86146e-11
3.12427e-11
1.64293e-11
-1.47418e-09
-6.14013e-09
-3.14907e-11
1.47817e-11
2.20387e-09
-9.38166e-09
-3.16911e-10
1.45722e-09
-5.55069e-10
-9.02154e-10
-2.20522e-09
6.90856e-09
3.35908e-10
-5.03924e-09
2.84372e-09
3.91543e-09
-3.27021e-09
3.34775e-09
-7.75372e-11
-1.62418e-09
-8.21256e-09
7.14483e-09
2.6919e-09
2.48164e-09
-2.66465e-09
3.2081e-09
-3.02509e-09
-3.4443e-09
-1.85098e-12
3.44615e-09
9.92357e-10
3.85104e-09
1.32083e-09
5.97689e-10
-1.91852e-09
-6.41163e-11
6.30177e-09
-8.97989e-10
-8.39904e-10
-7.78658e-09
7.26355e-09
1.36293e-09
4.8903e-11
-5.64639e-09
-3.11128e-11
5.6286e-09
2.12605e-09
-1.29074e-09
-8.35315e-10
-4.94883e-09
4.23151e-11
-2.16133e-11
4.59766e-09
-4.58494e-09
1.42165e-11
-2.69444e-11
-2.21813e-10
-5.87512e-09
4.70869e-10
5.62606e-09
8.43773e-09
-1.29431e-09
-5.12723e-09
5.21886e-09
-1.41733e-10
5.01058e-11
-3.13944e-09
-1.62295e-09
3.87953e-09
-2.76878e-09
5.01834e-11
2.7186e-09
2.2503e-09
-3.16317e-09
4.19787e-09
-3.285e-09
7.57024e-09
1.41183e-10
2.34555e-09
4.00521e-09
-3.30088e-09
-3.04988e-09
5.15018e-09
-5.29207e-09
-7.99238e-11
3.97048e-10
-1.05771e-09
1.47424e-09
-8.13575e-10
-2.29405e-09
-1.3702e-09
7.63977e-10
2.90027e-09
4.69507e-09
-4.04601e-09
3.59865e-11
-1.28536e-10
4.89882e-10
-2.47027e-09
-7.05795e-10
2.68618e-09
1.35538e-10
2.42758e-09
-1.57335e-09
3.79716e-11
-9.43598e-11
1.8669e-10
-1.30301e-10
-3.30164e-09
3.68313e-09
-4.04227e-09
3.66077e-09
5.96547e-09
-1.77634e-11
-1.02997e-12
-5.94668e-09
-7.47691e-11
9.18282e-11
-1.70591e-11
-2.04795e-09
7.66229e-09
-7.90132e-09
2.28698e-09
-2.25997e-09
2.41605e-09
4.6261e-09
-4.78217e-09
5.67265e-11
5.67993e-09
-5.68775e-09
3.2135e-10
5.30044e-09
-1.38747e-10
-2.39517e-10
-2.07561e-09
1.93299e-09
-1.45214e-11
5.17666e-12
2.0092e-10
-1.91575e-10
5.56011e-14
-8.04169e-09
8.28344e-11
-3.35304e-09
1.91601e-11
5.97369e-09
1.99943e-11
-6.01284e-09
6.11859e-09
-2.6757e-11
1.56776e-11
-6.10751e-09
-1.12556e-10
-6.86357e-09
6.85507e-09
1.21057e-10
-2.037e-09
6.10331e-10
-6.11273e-10
-3.14837e-09
1.61911e-09
-3.81631e-09
-2.2199e-09
8.40308e-09
-8.76351e-09
2.58033e-09
-6.01305e-09
6.77615e-12
6.05195e-09
-1.63796e-09
2.50395e-10
2.49697e-09
-4.16494e-09
6.75812e-11
1.60039e-09
6.3873e-09
-2.09338e-09
-3.92186e-09
-3.72056e-10
-1.18779e-09
-3.63728e-09
1.35294e-09
-4.77414e-11
1.53145e-11
6.51993e-11
-3.27724e-11
-8.31967e-11
6.82443e-09
-6.85379e-09
2.39806e-11
-4.96073e-11
5.94456e-11
-2.80543e-11
2.14168e-10
-5.04797e-09
1.11496e-09
3.71884e-09
9.30706e-10
-2.07918e-09
-3.85405e-09
-1.64859e-12
2.76605e-12
-2.04497e-10
2.0338e-10
-1.70365e-09
-6.45031e-09
2.16558e-09
-6.68351e-10
-1.15963e-09
-1.60984e-09
-1.5525e-09
-3.97151e-10
2.35356e-09
1.04298e-09
-6.57114e-09
6.93791e-09
-5.3609e-11
-3.13162e-10
-3.18763e-09
7.97822e-10
4.22463e-09
-1.83482e-09
-2.99761e-09
-6.99555e-10
4.19913e-09
-5.01963e-10
-1.31048e-10
7.45959e-11
8.59315e-10
1.20326e-10
-8.76632e-10
4.60005e-11
7.10305e-10
-6.46397e-09
6.48091e-09
-5.8421e-11
3.39651e-10
-3.02548e-10
2.79692e-11
-6.50722e-11
-3.86897e-09
-6.50571e-09
1.61205e-09
8.76263e-09
-3.61711e-09
-5.76468e-09
6.08314e-09
3.29865e-09
2.90792e-09
2.11883e-10
-2.62993e-09
3.88088e-09
-2.42327e-09
1.33105e-09
-2.78866e-09
-5.8711e-09
2.0768e-11
-6.17876e-11
5.91212e-09
6.45298e-10
-7.02567e-10
1.77595e-10
-5.31304e-09
1.51937e-09
-2.01697e-10
3.99537e-09
1.20546e-09
-2.92203e-09
-7.45826e-10
2.4624e-09
-4.60094e-09
-6.20437e-09
6.7268e-09
-1.54494e-09
3.28446e-10
3.08324e-09
-1.86674e-09
2.83229e-10
-6.47761e-09
6.27721e-09
2.60278e-09
7.15101e-09
-8.01742e-09
-1.73637e-09
3.48102e-09
-5.07093e-10
-3.83485e-11
-6.52631e-10
2.33203e-09
4.43669e-09
2.62945e-09
-1.21186e-09
4.65491e-09
-6.0725e-09
-6.79683e-09
6.68769e-09
1.82422e-10
-7.32793e-11
-5.58667e-09
5.5909e-09
2.5695e-11
-2.99328e-11
-1.81271e-10
2.20205e-10
2.85896e-10
-7.59002e-09
-8.3043e-09
2.98702e-09
9.5949e-10
-2.40968e-09
-1.73744e-09
5.23599e-09
-1.93787e-10
9.58473e-11
-5.13805e-09
3.81886e-09
-4.1442e-09
5.63947e-09
-5.31412e-09
-3.05936e-09
2.37726e-09
-2.1363e-09
2.8184e-09
5.72282e-09
2.47659e-09
-4.63776e-09
-3.56164e-09
-1.93712e-10
8.51484e-10
-8.50664e-10
-3.49668e-09
-3.63732e-09
3.53272e-09
3.60128e-09
6.34336e-10
3.34975e-09
-1.18454e-09
4.83514e-09
5.93405e-09
4.58059e-09
-5.30858e-09
-3.78745e-09
-3.3495e-09
3.64026e-09
1.34394e-08
-4.90647e-09
-5.67848e-09
2.63348e-09
-3.00665e-09
-3.53394e-09
3.90711e-09
-3.7323e-09
4.33506e-09
-2.67064e-09
2.06787e-09
-5.35094e-11
1.37718e-10
3.33533e-11
-1.17562e-10
-4.26576e-09
3.72085e-09
-3.6503e-09
4.19522e-09
-2.8767e-09
2.96619e-09
-8.94876e-11
-5.5874e-09
5.6074e-09
1.71158e-11
-3.71211e-11
1.35003e-09
4.59022e-10
-6.48486e-10
-1.16056e-09
9.19767e-11
-6.66781e-10
-1.551e-10
3.82919e-09
-1.0853e-09
8.69782e-10
-3.61368e-09
-5.66058e-09
-6.81558e-11
5.47946e-09
2.49274e-10
-1.63877e-09
2.45895e-09
5.56712e-09
3.74176e-10
-3.23523e-10
6.6962e-10
-7.20274e-10
3.25054e-10
-1.53268e-11
3.61259e-09
-1.0071e-10
-4.71831e-09
5.91004e-11
4.13456e-10
7.34787e-09
-5.55746e-09
1.59811e-09
4.06966e-09
-3.70843e-09
-1.95935e-09
6.61056e-12
-1.4998e-09
-3.7453e-09
1.70431e-09
-2.09493e-09
-7.52803e-10
1.14342e-09
-4.1106e-09
3.80259e-09
-3.95776e-09
-4.14627e-09
4.43126e-09
3.97615e-09
-4.26115e-09
-1.6309e-11
-3.45882e-09
3.47513e-09
6.11136e-09
-2.48192e-09
2.81702e-09
-5.85878e-09
-7.87725e-10
3.82949e-09
4.60944e-09
2.07255e-11
-3.91184e-12
-4.62625e-09
-6.02172e-11
4.80592e-09
-4.77936e-09
3.36548e-11
-8.94024e-10
1.07013e-09
5.94265e-09
-6.11876e-09
2.47263e-10
8.81128e-10
-9.1607e-10
4.7881e-10
2.61856e-09
-1.04903e-09
1.40058e-09
-2.97011e-09
-1.52511e-09
6.91038e-09
-6.97519e-09
1.58991e-09
-5.17916e-10
-9.16136e-09
-9.22824e-10
-4.70056e-09
2.49325e-09
2.78847e-09
-2.56891e-09
2.44143e-09
-2.66099e-09
-5.88715e-12
1.18656e-11
-1.53695e-10
1.47717e-10
2.16408e-10
-1.08261e-10
1.539e-09
4.16429e-10
-6.05407e-10
5.59653e-09
-5.61293e-09
-2.93984e-11
4.5803e-11
4.88686e-09
-4.84863e-09
2.08782e-09
5.1355e-09
-6.42816e-11
1.507e-10
-5.6511e-09
-4.44231e-11
4.91318e-11
-2.79099e-11
3.77725e-11
2.39941e-09
5.67266e-11
-5.11064e-11
-2.40503e-09
3.62214e-09
-1.95825e-09
-1.66389e-09
3.03866e-09
-2.47223e-09
2.00237e-09
-2.04558e-09
7.15055e-10
-7.06698e-09
-1.37142e-09
7.51157e-09
9.26838e-10
-4.07258e-11
-5.85998e-09
2.96006e-11
3.45985e-09
-2.98423e-11
-5.17382e-09
-1.25092e-09
2.09271e-09
4.33203e-09
-3.42514e-09
-4.8546e-11
4.64142e-10
4.27445e-09
-5.90099e-09
2.77204e-09
3.12895e-09
7.30803e-11
3.25963e-09
-1.8238e-09
-1.50892e-09
6.35804e-09
5.81713e-09
-8.65367e-09
2.34348e-09
5.08264e-09
-1.84719e-09
-4.46968e-09
-7.60568e-10
4.68233e-09
-7.66386e-09
6.45057e-09
1.15173e-11
-3.3059e-11
-1.41772e-09
-3.62898e-09
3.66898e-09
1.37772e-09
4.10181e-09
-5.54709e-09
-2.74636e-11
5.88604e-09
5.1528e-11
-5.91011e-09
1.85606e-09
-3.28375e-09
-1.63167e-09
-4.26338e-09
3.79897e-09
2.58417e-09
-2.11976e-09
-4.87466e-09
4.98901e-09
-1.82897e-09
1.71462e-09
1.30591e-10
-7.37752e-11
-1.11225e-10
5.44093e-11
9.67301e-10
-7.86838e-10
-4.56023e-09
1.54005e-10
-3.91534e-11
-1.18924e-09
4.03271e-10
1.245e-09
-4.05655e-09
2.87121e-09
4.14107e-09
3.95951e-10
8.45137e-10
-1.63368e-09
-1.85861e-09
2.1762e-09
-3.17594e-10
-6.6011e-10
4.71997e-12
-2.21242e-10
5.80565e-09
4.76388e-11
-5.83366e-09
-1.96317e-11
-2.98394e-09
3.15201e-09
-2.29628e-09
2.12821e-09
5.03039e-09
1.85622e-10
-8.05122e-11
6.52224e-10
2.57212e-09
-1.52405e-09
-2.30091e-11
5.7819e-09
4.67636e-11
-1.96691e-10
-4.49503e-09
1.75463e-10
-2.63013e-10
4.58257e-09
-3.93554e-09
-2.4677e-09
9.20638e-10
5.4826e-09
7.11665e-09
-7.44346e-10
4.4989e-09
2.18456e-10
1.12671e-10
-4.83003e-09
1.43499e-11
7.2533e-09
-7.17235e-09
-9.52957e-11
5.49406e-11
-2.24616e-11
-6.98882e-10
2.51811e-09
-2.29159e-09
4.72364e-10
-6.0122e-09
6.04455e-09
2.17874e-11
-5.41431e-11
3.75532e-09
5.33665e-09
-4.80592e-09
-4.28606e-09
3.92417e-11
-3.29008e-09
3.27108e-09
-2.02367e-11
-3.42217e-09
2.39137e-09
-1.96681e-09
-9.51082e-11
1.61198e-10
5.96081e-10
-5.70771e-09
4.73868e-10
2.27958e-09
-3.24211e-09
1.70096e-09
7.43744e-10
-6.89242e-10
3.37464e-10
-3.91965e-10
-5.7049e-09
3.54023e-10
5.06797e-09
-3.7999e-09
5.52505e-11
-6.3788e-09
6.37119e-09
-5.87348e-09
5.96055e-09
-1.83703e-10
9.66268e-11
-9.53643e-11
5.01769e-09
2.27852e-10
7.98527e-09
-8.40115e-09
1.75202e-10
2.40677e-10
-5.61511e-09
-3.34796e-11
3.56536e-11
-3.55746e-11
2.05844e-10
2.22914e-09
-1.88165e-09
-6.97107e-09
3.29102e-09
-3.2729e-09
-1.81224e-11
-3.1862e-09
3.24915e-09
-3.21132e-09
-6.05905e-09
6.05949e-09
-3.61197e-12
3.17167e-12
2.3479e-09
4.42073e-09
-3.40538e-09
-3.36326e-09
-5.40439e-09
8.63402e-11
-1.46766e-10
5.46482e-09
-5.42836e-09
-2.77379e-09
-3.35672e-10
8.53782e-09
5.028e-09
-8.17771e-10
-4.21023e-09
3.80004e-10
-3.80238e-09
-5.70084e-09
4.09854e-10
2.36287e-09
-4.15709e-09
-1.1778e-09
2.97202e-09
-8.89274e-09
-1.63147e-09
1.04908e-09
-6.80682e-09
-2.98449e-09
8.74224e-09
2.78212e-09
-6.09431e-10
-2.08925e-09
-8.34338e-11
7.00096e-09
-1.5254e-09
2.05839e-09
-7.53395e-09
2.8418e-10
-6.58047e-09
-9.2046e-09
6.71163e-09
3.95513e-09
-1.46216e-09
-9.76943e-10
2.75016e-10
9.49189e-10
-2.46455e-09
-7.15661e-09
2.23423e-09
3.3268e-09
-3.23433e-09
2.54272e-10
-3.46737e-10
-6.05134e-09
6.04026e-09
-1.35194e-11
2.46016e-11
-6.53185e-09
-3.39715e-09
3.01929e-09
9.49501e-10
5.10326e-09
-2.32241e-09
-3.71711e-10
3.60524e-09
-3.63068e-09
-4.43825e-10
-1.88003e-09
-9.85578e-10
-6.2646e-11
1.23885e-09
-1.90625e-10
5.82277e-09
-2.68493e-11
8.71117e-12
-5.80463e-09
2.31196e-09
-5.34984e-09
8.84475e-09
-5.80687e-09
-7.04211e-09
7.08966e-09
-9.62743e-11
-1.27303e-09
3.22225e-09
-1.87614e-09
5.52873e-09
-3.30091e-10
-1.14542e-09
1.1292e-09
3.46307e-10
-9.42449e-09
7.06901e-09
7.31308e-10
3.95469e-09
-2.56052e-09
-4.6958e-09
5.76321e-10
-4.91402e-10
2.39856e-10
-3.24775e-10
-2.22748e-09
-6.73808e-09
7.08391e-09
-7.9202e-09
5.83185e-09
-2.72122e-10
4.48092e-10
-6.00782e-09
6.00589e-09
-6.02327e-09
-1.54679e-11
3.28478e-11
5.1531e-09
-1.13392e-10
1.67169e-10
-5.20688e-09
-8.32137e-11
-2.79349e-09
2.91149e-09
1.73142e-10
-3.89855e-10
-2.69477e-09
1.06432e-09
1.3804e-09
3.374e-10
8.69935e-11
-1.78795e-10
-5.03543e-09
7.63776e-09
-4.9225e-09
-3.84181e-09
4.6628e-09
-4.08142e-09
2.85018e-09
-6.35717e-09
-7.11519e-11
6.38759e-09
-6.76787e-09
6.78385e-09
-4.27389e-11
-2.36819e-10
-8.50174e-10
1.01415e-10
-5.7429e-09
1.59674e-11
-4.72983e-11
5.77424e-09
3.41211e-09
-3.43958e-09
-4.02659e-09
3.38992e-09
2.99954e-09
3.73662e-11
6.48994e-10
-4.10623e-11
8.94336e-09
-9.14251e-09
1.20595e-09
-1.00679e-09
-2.90881e-09
2.84859e-09
-2.79478e-09
2.05648e-09
1.71681e-09
-9.78519e-10
2.41671e-09
-3.37801e-09
1.69253e-09
-2.04683e-09
7.62263e-09
-7.83421e-09
-1.55029e-09
1.76187e-09
-1.09024e-08
-1.77173e-09
8.07315e-09
-2.93999e-09
-7.54558e-10
5.04914e-09
-1.35459e-09
5.91265e-09
-1.44006e-09
-1.9145e-09
-3.80822e-09
3.76053e-09
1.96218e-09
-4.91509e-09
-3.46453e-10
-3.11001e-10
3.05794e-10
-5.91073e-09
6.55404e-09
-4.7715e-11
-7.10618e-09
7.16825e-09
3.50558e-09
-3.62316e-09
3.80071e-09
4.30302e-09
-2.87027e-09
3.2371e-09
-4.42338e-09
1.95686e-09
-3.21757e-10
-1.39879e-09
1.03922e-09
-1.59764e-09
1.62274e-09
-2.2121e-09
2.05612e-09
-2.36247e-09
3.36446e-09
-3.30057e-09
1.64627e-09
-1.71016e-09
1.54765e-09
-2.16711e-09
-3.72402e-09
4.34347e-09
-5.80606e-09
-2.7193e-10
2.04517e-10
5.30285e-09
-3.4917e-09
-1.81988e-09
8.72724e-12
5.41545e-09
-1.36722e-10
7.39616e-11
-4.75343e-10
3.77803e-09
-3.30269e-09
3.3091e-09
-4.85505e-09
2.47665e-09
-5.69918e-09
5.72117e-09
2.65654e-11
-4.8556e-11
-9.0544e-10
-4.53856e-09
5.2891e-10
8.2588e-09
2.30053e-09
-2.07021e-09
-4.69837e-10
9.33757e-12
1.67366e-10
-8.19801e-12
-1.68506e-10
-2.88704e-10
1.46628e-09
-1.82597e-09
6.48389e-10
-2.15143e-09
1.65318e-09
3.27393e-09
6.75455e-09
-1.72654e-09
-1.17913e-09
1.21647e-09
-3.73339e-11
3.07531e-09
-3.127e-09
-2.51723e-09
-6.69805e-10
-2.57162e-09
1.5802e-09
1.66123e-09
-2.03025e-11
3.77657e-11
-5.76279e-09
5.74533e-09
-2.00084e-11
-3.32333e-09
3.34334e-09
-3.07545e-10
3.33334e-10
2.72732e-09
1.22682e-09
-2.73559e-09
-1.21855e-09
2.06639e-09
-2.07815e-09
-4.6456e-09
2.52268e-09
-4.71716e-10
2.59464e-09
-2.36739e-11
2.71804e-11
5.42843e-10
-4.79527e-11
1.80564e-09
1.77026e-09
-8.24562e-10
-3.9363e-09
2.99061e-09
-7.00559e-09
6.96168e-09
-2.60617e-09
-2.10823e-10
3.0408e-09
-3.73036e-09
6.46726e-09
-5.77771e-09
-3.42598e-09
-3.95609e-10
4.40266e-09
-5.81066e-10
-2.11708e-09
-2.83956e-09
2.89654e-09
-2.30895e-09
2.77783e-09
-2.54806e-09
4.41972e-10
-4.56755e-11
4.1452e-09
-2.47388e-09
2.07018e-09
-3.74149e-09
4.78643e-09
-3.16897e-09
8.41483e-10
5.46261e-09
-2.50446e-09
-5.65786e-09
-3.81068e-09
5.03819e-09
8.34889e-11
-1.311e-09
-6.08561e-09
2.06014e-11
6.09186e-09
-2.6847e-11
3.40275e-10
-3.0384e-10
1.86031e-10
-2.22466e-10
3.78695e-09
-3.79736e-09
-3.06052e-10
1.1655e-09
-1.18953e-09
-3.30722e-09
3.28692e-09
-2.16327e-09
-4.81991e-09
1.80936e-09
-3.22819e-10
-7.20223e-10
-8.16156e-09
-6.65876e-09
6.94896e-09
-6.01755e-12
2.6971e-09
7.71067e-09
7.90154e-10
6.14255e-09
-3.2012e-09
3.01343e-09
-5.95478e-09
-7.41159e-09
6.9927e-09
3.39456e-09
-2.97567e-09
1.92726e-11
6.98641e-10
1.82363e-10
3.00852e-09
-3.19088e-09
1.63373e-11
-2.19317e-11
-2.59842e-11
3.25693e-09
-3.23095e-09
-8.12734e-10
-4.26878e-09
6.11841e-10
-3.50416e-09
-2.66457e-09
4.25501e-09
-2.65772e-09
2.79098e-09
6.15397e-09
-6.28723e-09
2.9906e-09
8.98648e-10
-2.18493e-09
4.53596e-09
-3.46136e-09
3.81035e-09
1.59287e-09
-1.57644e-09
9.80531e-10
-6.34785e-10
-3.14052e-09
-2.12932e-10
5.49796e-09
-8.87712e-09
-9.0501e-10
8.50704e-09
-5.12964e-09
1.12707e-09
-1.38185e-09
1.32651e-09
-2.86078e-09
2.52125e-09
-9.86984e-10