/*--------------------------------*- C++ -*----------------------------------*\
  =========                 |
  \\      /  F ield         | OpenFOAM: The Open Source CFD Toolbox
   \\    /   O peration     | Website:  https://openfoam.org
    \\  /    A nd           | Version:  8
     \\/     M anipulation  |
\*---------------------------------------------------------------------------*/
FoamFile
{
    version     2.0;
    format      ascii;
    class       volVectorField;
    location    "9.2";
    object      U;
}
// * * * * * * * * * * * * * * * * * * * * * * * * * * * * * * * * * * * * * //

dimensions      [0 1 -1 0 0 0 0];

internalField   nonuniform List<vector> 
5490
(
(0.000311043 0.00189848 8.78602e-22)
(0.00030109 0.0018724 1.40046e-21)
(0.000332968 0.00186197 -1.44743e-23)
(0.00030632 0.00188914 -9.05228e-22)
(0.000354785 0.002097 -9.03369e-23)
(0.000433018 0.000671531 -3.91095e-21)
(4.46264e-06 1.21087e-05 2.32641e-21)
(0.000233352 0.000219891 4.1325e-22)
(0.000325486 0.00189515 1.73736e-23)
(0.000440302 0.000172732 1.25655e-21)
(0.000311885 0.00190666 -3.04947e-22)
(0.000145105 0.000951556 0)
(0.000319772 0.0018985 -5.28849e-22)
(0.000323343 0.00168245 2.98385e-22)
(0.000324641 0.00189479 5.70421e-22)
(0.000492511 0.000154236 -6.0642e-21)
(-9.59828e-09 1.77064e-05 0)
(0.000105026 0.000654361 0)
(0.00026033 0.00163125 -9.76899e-22)
(0.000322396 0.00188431 -6.0699e-22)
(4.87086e-05 0.000944507 7.32263e-23)
(5.09913e-06 1.47185e-05 -1.17479e-21)
(0.000805061 0.000429258 0)
(1.52152e-06 1.41512e-05 0)
(0.000300749 0.00106253 4.34212e-22)
(0.000313333 0.00191459 8.69268e-22)
(0.000318362 0.0018878 1.11417e-21)
(0.000308298 0.00190475 0)
(0.000464897 0.000796252 2.36771e-21)
(0.000326076 0.00188438 0)
(0.000293984 0.00193291 -3.67287e-22)
(2.88282e-05 2.32404e-06 0)
(7.13684e-05 0.0018471 2.26131e-21)
(0.000374388 0.002105 8.68597e-22)
(0.000315423 0.00186791 -7.25288e-23)
(0.000295095 0.001625 1.15057e-22)
(0.000652366 0.000819296 1.8272e-21)
(0.000284962 0.00164192 2.39862e-22)
(0.000377325 0.0020759 7.8213e-23)
(0.000275066 0.00167872 3.91368e-22)
(0.000273756 0.00177664 4.19985e-22)
(0.000563915 0.000743912 8.81096e-22)
(0.000316986 0.00189428 -1.02907e-21)
(0.00057076 0.000836077 1.1198e-21)
(0.00110526 -6.94272e-05 2.57853e-21)
(0.000295974 0.00171149 -4.57837e-22)
(0.000322785 0.00188988 2.62303e-22)
(0.000376635 0.00207548 2.15456e-22)
(0.000345424 0.00176145 -6.19573e-23)
(0.000733298 0.0014547 -4.17235e-22)
(0.000429975 0.000273117 0)
(0.000323142 0.00187175 -1.60347e-22)
(0.00030904 0.00184184 1.6962e-22)
(0.000319788 0.00190848 1.36041e-22)
(0.000317761 0.00190732 -9.31062e-22)
(0.000248096 0.00181381 2.84832e-22)
(0.0015072 8.15307e-05 -9.07938e-22)
(0.000965785 -1.07457e-05 -1.02289e-21)
(0.000361136 0.00205993 0)
(0.000365022 0.00208963 5.67529e-22)
(0.000446663 0.000831196 -9.09999e-22)
(0.00028309 0.00195384 8.38954e-23)
(0.000305014 0.00178144 0)
(0.000198772 0.000189423 -8.04461e-22)
(3.86058e-06 2.36904e-05 0)
(0.000428139 0.000397251 0)
(0.000514045 0.000151406 0)
(0.00130812 0.000257776 1.02875e-22)
(0.000295792 0.00173858 0)
(0.00102098 4.2477e-05 1.03319e-22)
(0.000318962 0.00190554 1.73907e-22)
(0.000370516 0.00208296 -2.71051e-22)
(4.89348e-05 0.00036298 4.02399e-22)
(0.000261918 0.000125844 -3.12103e-22)
(0.000385672 0.000276948 1.5293e-21)
(0.00032246 0.00174717 1.10541e-22)
(0.000687349 0.000571758 2.74409e-21)
(0.000301744 0.00184696 0)
(0.000241536 0.00165958 -5.92189e-22)
(0.000364079 0.00206105 -5.09595e-23)
(0.000520788 0.000571541 5.07932e-22)
(0.000623278 0.00027403 -1.55808e-21)
(0.000219758 0.000765644 1.85166e-21)
(0.000258793 0.00165073 9.48912e-22)
(0.000350126 0.00206998 -2.84572e-23)
(0.000316893 0.00176255 -3.41851e-23)
(-0.000536974 0.000427007 -3.95283e-22)
(0.000300539 0.000500745 1.12837e-21)
(0.000367862 0.00206949 -1.12321e-23)
(0.000671066 0.000886883 -1.29309e-21)
(0.000502862 -0.000203475 -1.63509e-21)
(0.000130234 0.000769482 -1.91932e-21)
(0.000371195 0.00207547 5.71863e-23)
(0.000927111 -3.6415e-05 -8.83236e-23)
(0.00028676 0.00127177 -1.02495e-21)
(0.000493608 9.25339e-05 1.61169e-21)
(0.000371071 0.0020913 3.5331e-22)
(0.000563165 0.000705875 5.89518e-22)
(0.00125291 0.000445175 4.01109e-21)
(0.000328847 0.00186276 5.00453e-22)
(0.000161252 0.000961597 -6.3492e-22)
(0.000287959 0.00165779 -4.3854e-22)
(0.000312952 0.00182145 9.05055e-22)
(0.00049589 6.55164e-05 -4.98018e-25)
(0.000376359 0.00210803 0)
(0.000346665 0.00207325 2.30196e-24)
(0.000321273 0.0018536 -3.42513e-22)
(0.000239936 0.00100223 -9.82411e-22)
(0.000223426 0.000106458 4.80498e-22)
(3.01934e-05 2.54343e-06 2.79454e-21)
(0.000505224 -5.69454e-05 3.49526e-21)
(2.74687e-05 0.000308781 1.83012e-22)
(0.000765625 0.000195982 3.71434e-22)
(0.000281514 0.00172866 3.15016e-22)
(0.000371708 0.00208426 3.25486e-24)
(0.000749263 0.000795947 -8.7353e-22)
(0.00033791 0.00194857 0)
(0.000758894 0.000234256 8.09903e-22)
(0.000932493 0.00018906 -2.23747e-22)
(0.000362633 0.00209443 3.03495e-22)
(0.000349434 0.00208958 4.90818e-22)
(0.00121462 0.00168198 3.57266e-22)
(0.000380392 0.000779987 3.01136e-21)
(0.000250885 0.00164806 -1.03504e-21)
(0.000513896 -0.000332928 0)
(0.00032891 0.000335022 -2.05099e-21)
(0.00016349 0.000992267 2.85233e-22)
(0.000322162 0.001959 1.22711e-22)
(0.000498434 -1.04568e-05 1.64634e-21)
(0.000321821 0.00169697 -2.56762e-22)
(0.00101538 5.25045e-06 -2.04948e-22)
(0.000611484 0.000868267 2.0309e-21)
(0.00036391 0.00170661 3.11734e-22)
(0.000309161 0.00173812 9.90109e-23)
(0.00037404 0.00207182 -2.38668e-22)
(6.07691e-06 0.000244724 0)
(0.000989555 -1.03751e-05 0)
(3.05864e-05 0.000352005 2.08005e-22)
(0.00047403 0.000246891 -3.98543e-22)
(0.000301687 0.00168312 -3.77395e-22)
(0.0004932 -9.99945e-05 1.73229e-21)
(6.06992e-07 6.90465e-05 7.10424e-22)
(0.000369625 0.00208277 4.04646e-24)
(0.000375373 0.000956665 -1.14144e-21)
(1.67213e-05 -4.9007e-06 -1.22353e-21)
(0.000824309 -0.000153963 -3.82705e-21)
(0.000177777 0.00183118 -1.12364e-23)
(0.000787405 -0.000169709 0)
(0.00033887 0.00194024 7.29077e-23)
(0.000590508 0.00074661 -4.40722e-22)
(2.32143e-05 3.97198e-06 0)
(0.000192553 8.42467e-05 -2.71962e-26)
(0.000157712 0.000943129 3.33055e-22)
(3.05593e-06 0.000118621 0)
(0.000785386 0.000683705 2.48872e-21)
(5.98155e-06 3.42848e-05 -6.72902e-22)
(0.000186028 4.42208e-05 -1.95806e-22)
(0.000834028 0.000190514 -2.25223e-22)
(0.000885741 1.32305e-05 8.60821e-22)
(0.000339613 0.00184177 1.46712e-22)
(0.000292283 0.001618 4.06194e-22)
(0.000673081 0.0010871 0)
(0.000343338 0.000969734 7.35998e-22)
(0.000278688 0.000409173 -1.6233e-24)
(0.00020758 0.000208574 1.71953e-25)
(0.000380101 0.000503686 0)
(3.74684e-05 -3.18805e-06 -1.0404e-22)
(0.000265595 0.00194796 5.91454e-23)
(0.000995636 0.000427564 -1.78749e-21)
(0.000362198 0.00187034 -1.20041e-23)
(0.000978084 -6.83523e-06 2.3643e-21)
(0.000366618 0.00207044 5.33122e-23)
(0.000261686 0.00158683 4.49057e-22)
(3.01102e-05 3.82189e-06 0)
(0.00036802 0.00209325 3.26452e-22)
(0.000351691 0.00209646 0)
(0.000362597 0.00208202 8.71986e-23)
(1.47022e-05 0.000117637 0)
(0.000365563 0.00207938 -1.61476e-22)
(0.000354038 0.00208051 0)
(0.00102388 5.85407e-05 -9.18972e-22)
(0.000162628 0.000189636 1.32205e-21)
(0.000345666 0.00207879 0)
(0.000289008 0.0016495 4.44523e-24)
(4.85702e-07 2.30839e-05 0)
(0.000268765 0.00166459 9.3993e-23)
(0.000293529 0.00163388 -2.80359e-22)
(0.000355107 0.00209524 8.69224e-23)
(0.000144706 1.57674e-05 -9.62387e-23)
(0.00044929 0.000214922 1.09976e-21)
(0.00116696 0.000182198 1.67906e-21)
(0.000150763 0.000917321 -3.41202e-22)
(0.000328987 0.00195197 -3.16931e-22)
(7.1238e-05 7.46735e-06 -1.37326e-21)
(0.000288358 0.000311547 0)
(0.000370133 0.0020855 3.5455e-22)
(0.000293335 0.00203431 1.42124e-22)
(1.04411e-05 5.20309e-05 0)
(0.000331579 0.000771254 2.72162e-21)
(0.000317423 0.00186647 8.40272e-23)
(5.90607e-05 -0.00022288 0)
(0.000341445 0.00184165 1.04807e-21)
(5.57307e-07 3.81143e-05 7.40099e-22)
(0.000501679 1.78922e-05 -1.55038e-21)
(0.000314683 0.00153592 -7.86135e-22)
(0.000972921 -4.96161e-05 4.19016e-22)
(7.54728e-05 -3.1744e-06 1.84924e-22)
(7.19376e-05 -0.000251574 7.75216e-22)
(0.000279942 0.00164942 0)
(0.00121222 0.000179036 2.26756e-22)
(0.00095039 1.78657e-05 0)
(2.61033e-05 0.000247721 2.19986e-22)
(0.000310146 0.00191235 3.95383e-22)
(0.000323235 0.00194374 6.42038e-22)
(0.000346755 0.00179916 1.41886e-21)
(0.00029379 0.00168823 -1.29545e-22)
(0.000321084 0.00172435 -4.50191e-22)
(0.000312157 0.00190656 3.15224e-22)
(0.00100066 2.81864e-05 -4.65164e-22)
(9.24738e-06 4.21221e-05 -4.85706e-23)
(0.000665399 0.000465228 -3.31753e-21)
(0.000144981 4.59428e-06 9.78663e-23)
(0.000823155 0.00117151 -8.45098e-22)
(0.000323207 0.00191483 -2.02932e-22)
(0.000291422 0.00197175 -5.63879e-22)
(0.00036116 0.00208564 1.36973e-23)
(0.000294194 0.00165783 6.123e-24)
(0.000314106 0.00178048 3.45701e-22)
(0.000319278 0.00190779 -1.71777e-22)
(2.14634e-05 0.000211657 -2.33692e-23)
(0.000150919 0.00100696 -1.20166e-23)
(0.000692357 0.000806584 0)
(3.02548e-05 1.71838e-06 1.40221e-21)
(0.000368465 0.000260032 1.0962e-21)
(0.000155864 0.000917479 5.77926e-22)
(0.000289237 0.00102058 -3.21214e-22)
(5.25562e-05 -0.000197138 0)
(0.000202245 4.87729e-05 7.82712e-22)
(1.87477e-05 0.000180238 0)
(0.000317398 0.00188485 0)
(1.12847e-05 5.75841e-05 -4.73664e-23)
(0.000319162 0.00177818 1.03186e-22)
(0.000279632 0.0021191 -6.05913e-24)
(0.000338859 0.00193388 4.36988e-22)
(1.65689e-05 0.000152694 -1.8544e-22)
(0.000641014 0.000484126 -2.11179e-21)
(0.000578284 0.000794874 2.07803e-25)
(0.000112927 0.00160798 3.10229e-21)
(0.000325697 0.000886435 5.26459e-21)
(0.000156508 0.000199608 1.44573e-21)
(7.19208e-06 4.27977e-05 -7.07179e-22)
(0.000184441 0.00165921 4.75649e-21)
(0.000997943 -1.62421e-05 0)
(0.000698035 0.000820611 0)
(0.000288192 0.00158392 8.84316e-23)
(0.000325666 0.00166856 -4.81803e-22)
(0.000506948 0.00186384 -1.05568e-23)
(0.000325591 0.00177185 0)
(0.000319367 0.00188402 -3.14848e-22)
(0.000307569 0.00035888 0)
(0.00130662 0.000365607 -1.45571e-21)
(0.000303023 0.00188376 -9.40322e-22)
(0.000169483 0.00101514 -1.44102e-21)
(0.00102223 -2.70777e-05 7.74363e-22)
(0.000133305 2.46187e-06 3.63633e-22)
(0.000850145 0.000501988 0)
(0.000336013 0.00212997 2.60373e-22)
(0.00122719 0.000583541 1.13233e-21)
(0.00017102 3.79358e-05 0)
(7.71412e-06 -6.06071e-05 3.77126e-22)
(6.75426e-05 -9.45055e-06 -3.8699e-22)
(0.000375809 0.00201643 4.80261e-22)
(7.33558e-05 1.1615e-05 3.11928e-26)
(0.000414939 -0.000560083 1.68109e-21)
(0.00090169 0.00163875 6.21354e-22)
(0.000110978 8.17564e-06 -1.33919e-21)
(0.000259376 0.000164238 1.67944e-22)
(0.00031301 0.00167563 -4.51422e-23)
(0.000335842 0.00188387 -6.16505e-22)
(0.000292316 0.00214169 -2.69557e-22)
(6.53287e-07 3.03415e-05 7.22283e-22)
(8.54668e-05 1.01008e-05 0)
(2.80154e-05 9.56159e-05 -9.72495e-23)
(0.000535355 0.000979898 2.26055e-21)
(0.000209085 0.00109998 -6.35412e-22)
(9.89198e-05 0.000339912 4.6484e-23)
(0.000399766 0.000909822 0)
(0.0002777 0.00010906 -5.7946e-22)
(9.07674e-05 0.00109924 1.06152e-22)
(0.000327517 0.00175152 -3.36144e-22)
(0.000294309 0.00184469 -7.75848e-23)
(0.000315202 0.000873681 -3.79781e-21)
(0.000241483 0.000726583 -1.58901e-21)
(0.000172889 0.00108496 1.10024e-21)
(0.000203851 0.00106974 -5.5556e-22)
(0.00117882 6.38272e-05 0)
(0.000785039 -0.000243854 0)
(0.000233177 8.68468e-05 1.31962e-22)
(0.000253856 0.00156249 1.2921e-22)
(0.000102108 0.000856304 -3.26418e-21)
(0.000311553 0.00187514 4.79762e-22)
(2.85458e-05 -0.000195665 -3.78027e-22)
(0.000367818 0.00206421 0)
(0.000176062 0.000807161 2.31769e-21)
(0.000324705 0.00185688 0)
(0.000325084 0.00184735 -4.08948e-23)
(0.000977495 2.2156e-05 0)
(3.69699e-05 -0.000108257 -3.97316e-22)
(0.000299787 0.00176573 2.64653e-22)
(0.000334246 0.00185124 2.41506e-23)
(0.000201971 0.00108441 -4.40355e-22)
(0.000713125 0.000467832 3.32702e-21)
(0.000626223 0.000736352 3.80188e-22)
(0.000304712 0.00179253 2.20292e-22)
(0.000272165 0.00166133 0)
(0.000324244 0.00202372 -2.6434e-25)
(0.000267582 0.0015918 -1.25113e-24)
(0.00101505 5.33419e-05 9.31741e-22)
(0.000186754 0.00141371 1.83641e-21)
(1.75764e-07 6.31169e-05 -7.15849e-22)
(2.66589e-05 0.000335167 0)
(0.000233805 0.00112311 6.61503e-24)
(0.000326211 0.0017283 1.1001e-22)
(0.000280533 0.000264582 -2.04409e-21)
(0.000856147 8.14278e-05 0)
(0.000349843 0.00188749 0)
(0.000319101 0.00191559 -4.07271e-23)
(0.000311383 0.00181179 1.10555e-22)
(0.000624186 0.000502993 -6.89642e-24)
(0.000198741 0.00110737 1.18762e-21)
(0.000314237 0.00183256 -4.09207e-22)
(3.42454e-05 -2.47185e-06 -1.23243e-21)
(3.54558e-05 -7.43864e-07 0)
(0.000927091 0.000732967 2.25053e-21)
(0.000189422 0.00113764 -1.04923e-21)
(0.000204543 0.00106966 -5.24772e-22)
(1.09972e-05 7.21245e-05 -8.72738e-22)
(0.000370494 0.00205889 1.64607e-23)
(2.1608e-07 5.19296e-05 1.48675e-21)
(0.000921876 0.000149974 -3.78118e-22)
(0.000955644 6.09325e-06 8.17473e-22)
(2.61746e-05 -7.69128e-05 -5.93684e-24)
(0.000288104 0.00183134 0)
(0.000152512 0.00094982 -1.05239e-21)
(0.00031916 0.00165957 -1.25432e-24)
(0.000344186 0.00204758 -8.4024e-23)
(0.000369992 0.00207557 5.19373e-23)
(0.000219522 5.86532e-05 0)
(0.000294337 0.00160617 -4.97723e-22)
(0.000310998 0.00174528 0)
(2.35743e-06 0.000108816 0)
(0.000322398 0.00183954 3.16338e-22)
(0.000328505 0.00182035 9.0823e-23)
(0.000354365 0.00194333 2.04949e-22)
(0.00034047 0.00184159 0)
(3.14833e-05 8.26438e-07 -1.66029e-21)
(0.000187386 0.00107856 3.41463e-22)
(0.000319191 0.00187577 -2.73141e-22)
(0.000921681 -5.0093e-05 -2.09338e-21)
(0.000330209 0.00195153 8.28263e-22)
(0.000317354 0.00177363 -2.44924e-22)
(0.000374175 0.00205993 3.00973e-22)
(0.000917902 4.5497e-05 0)
(0.000206318 0.00108636 -1.32893e-22)
(0.000192929 0.00106197 -2.21358e-22)
(0.000344304 0.0020882 5.79074e-24)
(0.000304873 0.00184782 -1.20029e-22)
(0.000244319 0.000222117 -3.91985e-22)
(0.000888558 -6.03057e-05 -1.41679e-21)
(0.000149674 0.00182413 4.99261e-22)
(0.000173714 0.00108086 0)
(0.000361493 0.00208711 -4.0601e-22)
(0.00033216 0.00192598 1.20575e-22)
(3.89965e-05 -1.69536e-06 -1.2651e-26)
(0.00070514 0.00126604 -1.1547e-21)
(6.82763e-05 -3.41606e-06 1.88684e-22)
(2.93169e-05 8.24148e-05 2.41652e-22)
(0.000337444 0.00189481 3.41393e-22)
(3.65591e-05 0.000399049 -1.1697e-21)
(0.000396145 0.000764967 -2.68171e-21)
(0.000324452 0.00176385 0)
(0.000176073 0.000923993 -1.9619e-22)
(0.000336366 0.0018329 -2.67298e-21)
(0.000339699 0.00184999 -1.21944e-22)
(0.000137684 0.00165033 -2.8399e-23)
(0.000187921 0.00106207 0)
(0.000320809 0.0018157 0)
(0.000358225 0.00206519 4.32231e-22)
(0.000199766 0.00110112 -4.71102e-22)
(3.23597e-05 -2.1578e-06 6.59325e-22)
(0.000345918 0.000925105 0)
(0.000341511 0.00187877 -2.11008e-22)
(0.000315242 0.00020273 1.8457e-21)
(0.000338251 0.00205874 4.48185e-23)
(0.000333768 0.00188509 -4.55175e-22)
(0.000354195 0.00206019 -2.2634e-22)
(0.000367889 0.00208477 4.40513e-24)
(0.000235855 0.000138219 6.17112e-22)
(0.000350906 0.00188402 8.39054e-23)
(0.000179804 0.001114 1.58793e-22)
(0.00101019 4.49008e-05 -8.27401e-22)
(-0.00016584 0.00129142 -1.07208e-21)
(0.000272704 0.00164986 -2.07448e-22)
(0.000266213 0.000670056 0)
(0.000342515 0.00188887 3.20308e-22)
(0.000199684 0.000109179 -1.78575e-22)
(2.6674e-05 0.000151875 -1.63329e-22)
(0.000173607 1.07275e-05 -2.54604e-23)
(2.23022e-05 -7.13128e-06 2.1864e-22)
(0.000369273 0.00206011 -1.81201e-22)
(0.000345627 0.00225718 1.28497e-22)
(3.06044e-05 0.000179525 1.89795e-22)
(0.000324813 0.00191836 -4.8599e-22)
(0.000659213 0.00148204 -6.88365e-22)
(0.000338988 0.00189637 0)
(0.00017542 0.00106171 4.74376e-24)
(0.000201403 0.0011017 1.50884e-24)
(3.50678e-05 0.000211056 2.36631e-22)
(1.00433e-05 6.51876e-05 7.37594e-22)
(0.000368653 0.00193668 3.85449e-22)
(0.000359537 0.00206629 0)
(0.000179439 0.00184307 -1.95145e-22)
(0.000652154 0.00154843 -1.03918e-22)
(0.000330621 0.00184263 2.70171e-22)
(0.000716116 0.000829199 -5.56756e-22)
(3.19402e-05 0.000573055 -7.85097e-23)
(0.00032475 0.00169179 0)
(4.10242e-05 -2.73705e-06 1.20797e-21)
(0.000307394 0.00167156 0)
(4.18437e-05 0.000248989 1.75662e-22)
(0.000335376 0.00188692 -3.21282e-22)
(0.000359252 0.00206651 -3.17675e-22)
(0.000367873 0.00209249 -3.41723e-22)
(0.000293197 0.001971 2.05584e-23)
(0.00032806 0.000550879 1.54498e-21)
(9.33352e-05 1.20619e-05 3.0058e-24)
(2.38343e-05 -0.000173665 -1.47732e-24)
(0.000800627 0.000798447 -2.04347e-21)
(0.000182871 0.0010795 -6.13299e-23)
(0.000313743 0.00166192 1.50123e-22)
(0.000377272 0.00223913 -5.38883e-22)
(0.000331729 0.00188017 0)
(0.000203345 0.00108501 -8.71295e-23)
(0.000348534 0.000681383 0)
(0.000175548 0.00106716 -5.47931e-22)
(3.24945e-05 -9.66617e-05 3.84676e-22)
(0.000298039 0.00174578 0)
(3.96898e-05 -8.81957e-06 2.07457e-22)
(0.000133614 0.000175632 4.41501e-22)
(0.00107079 0.000307736 -6.61418e-24)
(0.000330279 0.0018743 -9.80357e-22)
(0.000973727 0.000109433 2.27515e-21)
(0.000179665 0.00105913 1.67997e-22)
(0.000183804 0.0010349 -7.45246e-23)
(0.000357864 0.00205812 7.59951e-22)
(0.000368102 0.00208583 -3.49565e-22)
(7.70403e-06 0.00028316 0)
(3.2545e-05 2.27953e-06 -2.43807e-21)
(0.000282292 0.00177972 0)
(0.000337158 0.00188354 5.30082e-22)
(0.000332593 0.00188353 0)
(0.000162414 0.000960063 4.50391e-23)
(0.000307295 0.00174786 0)
(0.000269609 0.00188468 0)
(0.000275713 0.000558299 0)
(0.000319166 0.00184582 4.19343e-22)
(0.000295264 0.00162429 -1.06979e-22)
(0.000425485 0.000555958 -9.12354e-22)
(0.000238071 0.00130332 5.01252e-22)
(0.00107871 0.00151775 8.036e-22)
(0.000314343 0.00185674 -5.56916e-22)
(0.00017644 0.00104513 7.95814e-22)
(0.000187638 0.00106024 -4.33001e-22)
(0.000326521 0.00184587 1.75879e-22)
(0.000200079 0.00196699 -9.81401e-24)
(0.000823283 0.000711554 -1.29291e-21)
(0.000970683 0.000397726 -1.03766e-21)
(0.000375599 0.00211484 0)
(0.000289148 0.00186816 2.77224e-22)
(2.77073e-05 -9.28814e-06 -3.04796e-22)
(0.000219561 0.000199788 5.47311e-22)
(0.000170923 0.000963648 -5.2923e-22)
(0.000339829 0.00191358 -1.14012e-21)
(0.000241049 0.00200911 1.69644e-23)
(0.000178685 0.00105828 -4.07862e-22)
(0.000314648 0.00184885 -8.63968e-25)
(0.000958727 -2.76961e-06 0)
(0.000183685 0.00182333 0)
(0.000579991 0.000273069 -7.99666e-22)
(0.000262254 0.00186884 0)
(0.000327767 0.00184223 0)
(0.000340637 0.0018777 1.06018e-22)
(0.00034371 0.00193358 4.97389e-22)
(0.000204811 -0.000127527 4.25628e-22)
(0.000210171 0.000777914 -1.08493e-21)
(3.08852e-05 -1.284e-05 0)
(1.69227e-05 -6.90889e-05 7.58077e-22)
(2.70603e-05 5.00221e-06 0)
(0.0003202 0.00185477 5.32296e-23)
(0.000304872 0.00184662 -2.85097e-23)
(0.000271292 0.0016681 -1.92783e-22)
(0.000316334 0.00182884 5.13502e-23)
(0.000178708 7.621e-05 -1.78216e-22)
(6.88812e-06 0.000226572 1.11196e-22)
(0.000598455 0.000329108 -2.27479e-21)
(0.000161631 0.00109008 9.16967e-22)
(0.000318117 0.00183469 0)
(0.000324241 0.00168831 -4.63021e-22)
(0.000409842 0.00111055 6.42892e-23)
(0.000541863 0.000730558 2.61137e-22)
(0.000148041 0.000601081 9.64674e-22)
(0.000991801 0.000665346 8.42507e-22)
(2.07444e-05 -5.34342e-06 -2.12388e-22)
(9.67528e-06 -3.19871e-05 0)
(3.93633e-05 -1.84369e-05 -3.1454e-22)
(2.1094e-05 3.49584e-06 -1.21633e-21)
(0.000142331 0.000365672 4.1588e-22)
(0.000181383 0.000937693 -2.61612e-22)
(0.000304796 0.00178119 7.23898e-22)
(0.000380096 0.000531557 4.2768e-22)
(9.16072e-05 0.000742871 9.39551e-22)
(0.000136751 0.000209398 1.06903e-21)
(0.000965262 0.000773554 -1.32235e-21)
(0.000705997 0.000898125 3.07712e-21)
(0.000217401 7.62208e-05 0)
(0.000244579 0.0002359 -1.60758e-21)
(0.000315376 0.00182189 -1.46499e-24)
(0.000338708 0.000592355 -1.27301e-21)
(0.000183859 -0.000120821 -5.89798e-22)
(0.000348243 0.0020747 1.82756e-23)
(6.83366e-06 3.7858e-05 1.50898e-21)
(0.000336971 0.00185223 -2.97492e-23)
(0.000975092 -4.13505e-06 -5.12063e-23)
(0.000965645 -7.60694e-06 -8.24291e-22)
(0.0001911 0.00111573 -7.49202e-22)
(-7.19639e-06 0.00116696 3.88271e-23)
(3.62515e-05 1.27051e-07 0)
(0.000296727 0.000890186 1.09718e-24)
(5.21681e-06 0.000193828 9.19442e-23)
(0.000160509 0.00103905 0)
(0.000648619 0.000241903 1.60754e-21)
(0.000397642 0.000899096 5.42163e-24)
(0.000251019 0.000426391 3.36903e-21)
(0.00053241 0.00128719 -1.39755e-21)
(3.94815e-05 -2.22997e-05 2.05574e-22)
(0.000142365 -9.99487e-05 -1.94958e-21)
(0.000492527 0.000894322 2e-21)
(0.000386307 0.000967418 0)
(0.000634802 0.000346031 0)
(0.000113261 0.00016595 8.218e-22)
(0.000331568 0.00173107 1.18098e-22)
(0.000342094 0.00173816 -1.46063e-21)
(0.000360481 0.00207312 0)
(0.000403937 0.000419344 2.4738e-21)
(0.000116859 0.000273155 0)
(0.00026118 0.00161633 0)
(0.00108492 0.000247783 -9.25036e-22)
(0.000155077 -0.000107922 1.22572e-21)
(0.000315002 0.00181726 0)
(2.30882e-05 -1.34764e-05 0)
(1.341e-06 9.0689e-05 0)
(3.47422e-05 -1.47115e-05 4.55564e-23)
(0.00020878 9.58332e-05 -5.07696e-22)
(0.000861975 9.28747e-05 -8.68536e-22)
(0.000945897 0.00102917 2.60702e-23)
(0.000332667 0.00182034 -2.67381e-23)
(0.00035438 0.000552334 -5.9051e-22)
(0.000285809 0.00185759 -7.48223e-22)
(0.000357302 0.00203587 5.87345e-23)
(0.00099265 6.95352e-05 -3.86343e-22)
(0.000301772 0.00189026 0)
(0.00120918 0.000687558 3.92904e-22)
(1.43015e-05 3.44814e-06 3.28617e-22)
(0.000198271 0.000422122 -8.77846e-22)
(0.000129514 0.000189709 4.30092e-25)
(4.53841e-06 0.000165474 -1.86964e-22)
(0.000865225 0.000380205 2.29799e-21)
(0.000179033 0.00107431 5.2269e-24)
(0.00096713 0.00131342 0)
(0.00032647 0.00184308 -1.42215e-22)
(2.83671e-05 6.57378e-06 0)
(0.00133607 8.22194e-05 0)
(0.000424079 0.000903811 -2.28863e-21)
(0.000175122 0.000942672 1.05026e-22)
(0.000234913 0.0016955 1.64372e-21)
(0.000340376 0.00175436 -1.03616e-22)
(0.000957545 0.00037198 -1.68192e-21)
(3.63369e-05 -2.07077e-05 -1.38053e-22)
(4.16929e-05 -0.000121166 3.86846e-22)
(3.80513e-05 -8.87619e-06 2.7316e-22)
(0.00116548 0.000128558 3.79546e-21)
(0.000670907 0.000278936 0)
(0.000158032 1.99137e-05 8.09577e-22)
(0.000766426 2.12002e-05 7.43168e-22)
(3.97055e-05 -1.49656e-05 -4.73025e-26)
(0.000481158 -0.000117737 -1.41511e-21)
(0.000973849 0.000105473 -5.64277e-22)
(1.24856e-05 9.73205e-05 0)
(0.000526391 5.87994e-05 -1.60051e-21)
(2.92024e-05 -8.62647e-05 0)
(0.00036372 0.00209336 -8.91121e-24)
(0.000316108 0.00183692 3.75177e-22)
(7.17754e-05 -0.00050142 2.14099e-21)
(3.93329e-06 0.000140506 0)
(0.000150217 0.000890455 -5.74689e-22)
(0.000328699 0.00192172 -8.44679e-23)
(0.000326621 0.00185132 -1.74313e-22)
(0.000945648 0.000238767 -8.70723e-23)
(0.000313126 0.00165352 5.50824e-23)
(0.000149971 0.000896124 -2.02574e-21)
(2.13829e-05 -1.69822e-05 -1.26461e-21)
(0.000113352 -8.57305e-05 7.987e-22)
(0.00135626 0.000287161 -4.67105e-22)
(0.00031634 0.00164811 1.75339e-22)
(0.000344188 0.00202369 7.5993e-22)
(0.000329829 0.00184926 4.5984e-23)
(0.000978192 0.000117295 1.10429e-21)
(0.00066714 0.000819026 -1.63324e-21)
(2.99113e-05 1.81106e-06 6.96193e-22)
(0.000398021 0.00209803 1.0961e-21)
(0.000998846 -2.672e-05 5.11914e-22)
(0.00032333 0.00176807 -4.88718e-23)
(0.000310008 0.00184668 4.71911e-23)
(0.000368265 0.00210193 -1.12207e-23)
(0.00022059 0.00187089 -3.31356e-25)
(3.28111e-05 8.12228e-07 1.39887e-21)
(2.33757e-05 -6.84889e-05 5.97752e-24)
(0.000295614 0.00162174 -3.38165e-22)
(0.00103859 0.000210379 0)
(0.00128788 0.000511902 4.95239e-22)
(9.81676e-06 -8.98903e-06 -2.38381e-22)
(0.000326212 0.000817032 -2.31879e-21)
(0.000968411 0.000126065 -2.17621e-21)
(0.00015919 0.00161052 5.13677e-21)
(0.00077185 0.000748309 1.11916e-21)
(0.000356284 0.00207815 -4.33342e-22)
(0.000271205 0.0018708 -8.35264e-24)
(0.000314808 0.00182243 0)
(0.000358379 0.000874803 7.48782e-22)
(0.001017 1.11808e-05 0)
(0.000980994 1.73427e-06 -3.84841e-22)
(0.000404983 0.000872612 1.83954e-21)
(8.59793e-05 1.68383e-05 0)
(0.000104158 0.000238779 -2.5606e-22)
(0.000460217 0.000745534 -1.755e-21)
(0.000314811 0.00184395 -1.83381e-23)
(0.000280576 0.00186288 -7.51558e-24)
(0.00101205 -6.88178e-06 0)
(0.000751536 0.000456424 -9.70013e-22)
(0.000364591 0.00208224 4.30473e-22)
(-1.08668e-05 0.00187848 -1.42773e-21)
(0.00106308 6.93917e-05 1.58586e-21)
(0.000300157 0.00184971 -1.87961e-21)
(2.26654e-07 8.32992e-05 0)
(0.000981244 5.43767e-05 7.57795e-22)
(0.000272754 0.00064717 -4.33362e-22)
(0.000131102 3.47254e-05 -1.56134e-21)
(0.00100903 5.09525e-05 0)
(0.000391892 0.000952356 -1.97577e-21)
(0.000263945 0.000996833 1.22021e-21)
(0.00037879 0.000881003 8.36086e-22)
(0.000529741 0.00230886 0)
(0.000484002 0.0010187 0)
(4.23228e-05 -2.58132e-05 -2.51365e-22)
(0.000178974 0.00106656 -3.34546e-23)
(0.000990758 -1.49865e-05 7.67233e-22)
(0.000318007 0.001808 3.50271e-22)
(0.000670086 0.00172194 -8.66587e-22)
(0.000297386 0.000850451 7.7912e-22)
(0.000610765 0.00035097 2.60734e-21)
(1.52441e-05 -6.13571e-05 -1.50935e-21)
(0.00100197 -1.03321e-05 -4.64264e-22)
(4.76337e-05 0.0006955 0)
(0.000215974 0.000429429 -1.70678e-21)
(0.000622752 7.71366e-05 1.40989e-21)
(0.00032283 0.000909589 -2.79927e-21)
(0.000152591 0.000622196 -5.82927e-22)
(0.000373314 0.00210102 1.24166e-22)
(0.000571547 0.000660268 0)
(0.0010897 0.000655847 -1.25368e-21)
(0.000128188 -9.41227e-05 -8.37669e-22)
(7.22683e-05 0.000833663 -3.15755e-22)
(0.000329571 0.00184581 0)
(0.000349663 0.0020948 0)
(0.00104332 0.00216096 -5.581e-23)
(0.000999692 -3.38786e-05 0)
(2.26477e-05 -9.5306e-06 0)
(0.000136391 0.000390059 -6.99111e-22)
(0.00017221 2.40534e-05 -8.01458e-22)
(0.000268145 0.00166978 -2.15438e-24)
(0.000339391 0.000885318 1.49663e-21)
(0.000142649 3.95282e-05 7.72526e-22)
(0.000343718 0.00188308 -1.33714e-22)
(0.000288104 0.00219249 -1.31579e-22)
(0.000767631 8.95606e-05 2.70216e-22)
(0.000421568 -0.000118559 -1.7496e-22)
(0.000300447 0.000932752 6.48432e-22)
(3.37523e-05 3.06746e-06 -1.40814e-21)
(0.000437627 0.00210297 -2.67358e-22)
(0.000371086 0.000996333 3.73226e-22)
(0.000396854 0.000886585 -9.43055e-22)
(0.000323302 0.00179093 5.73602e-23)
(0.000351822 0.0019106 5.99314e-22)
(0.000528913 0.000904161 -3.45893e-21)
(0.000366777 0.00208934 -1.59179e-21)
(0.000115153 -2.40256e-05 0)
(0.00093168 0.0004282 1.05546e-21)
(0.000383462 0.000921257 1.63736e-21)
(0.00070807 0.000801285 1.67353e-21)
(0.000289536 0.00186442 1.35025e-21)
(0.000500231 0.000728316 4.43612e-22)
(0.000707765 0.000824813 1.10571e-21)
(0.000603735 0.000637289 8.4332e-22)
(0.000988571 -6.10533e-05 -8.77734e-23)
(9.84496e-05 0.000233738 1.44205e-22)
(9.01447e-05 -7.02792e-05 -1.48799e-21)
(3.37105e-05 3.53889e-06 1.36737e-21)
(0.000237911 0.00185075 5.3606e-22)
(0.000382936 0.00212083 -1.0655e-21)
(0.0010445 0.000849325 3.01024e-21)
(0.000409627 -0.000267788 -2.49405e-22)
(0.000234261 0.00165093 7.45527e-22)
(0.000319539 0.00185168 -4.7092e-22)
(0.000426116 0.000360359 -2.12362e-21)
(0.000330643 0.00176593 1.0204e-24)
(3.49703e-05 0.000598505 0)
(3.2132e-05 4.17769e-06 -1.10613e-21)
(0.00032601 0.00164882 1.04848e-21)
(0.000313128 0.00210836 -1.40968e-22)
(0.000528425 0.00224238 0)
(1.04504e-05 -3.68743e-05 2.38388e-23)
(0.000440724 0.00093991 6.42907e-22)
(0.000358534 0.00104992 1.18778e-21)
(0.000709657 0.000833231 0)
(0.000705022 0.000751696 1.6561e-21)
(2.24727e-05 -1.97464e-05 2.82215e-22)
(0.000923939 0.00038129 0)
(0.000676468 0.000808922 -1.54171e-21)
(0.000336397 0.00185368 0)
(3.83939e-05 9.64378e-06 -9.31939e-22)
(0.00057355 0.000872801 -2.37353e-21)
(0.000352235 -0.00060121 0)
(0.000336513 0.00188288 -4.36713e-22)
(5.07963e-06 0.00149189 -1.22469e-21)
(0.000301606 0.00165627 -6.06739e-22)
(4.37945e-05 -0.000286082 1.18892e-21)
(0.000425569 0.000839934 1.20565e-25)
(3.17696e-05 6.47858e-06 0)
(0.000678359 0.000854555 -2.40332e-21)
(0.00098917 1.85483e-05 8.48028e-22)
(0.000605575 0.00047856 -1.1966e-21)
(0.00030711 0.00183273 4.50029e-23)
(0.000628952 0.000443856 2.15682e-21)
(0.000582576 0.000120974 5.28504e-22)
(0.000157091 0.000422202 -2.34263e-21)
(0.000295777 0.00188484 4.44489e-22)
(0.00102836 0.000246166 -1.58249e-21)
(3.71376e-05 6.85397e-06 1.59941e-21)
(0.000704889 0.00086135 0)
(0.000398982 0.000943653 9.3814e-22)
(0.000722366 0.000598112 -8.53696e-22)
(2.57777e-05 -9.40254e-06 0)
(0.000273359 0.00187136 -1.28971e-21)
(7.11482e-05 -8.72289e-06 4.9203e-22)
(0.000282363 0.00165833 -4.69106e-25)
(2.58134e-05 9.92932e-06 1.47122e-21)
(0.000775499 -0.000116787 1.21229e-21)
(0.000362885 0.00190789 -1.66231e-21)
(0.000315442 0.00182473 2.84273e-22)
(0.00031699 0.00182239 -1.64065e-22)
(0.00097869 1.6814e-05 -3.07716e-21)
(0.000361333 0.00212176 7.74481e-22)
(0.000285756 0.000755767 -1.12841e-21)
(0.000676173 0.00224616 4.87925e-22)
(0.000409065 0.000654318 2.00204e-21)
(0.000820559 0.000667517 -1.08412e-21)
(0.000559765 0.000346388 -1.05958e-21)
(0.000311265 0.0018473 -1.04451e-22)
(0.000269249 0.000756666 2.93816e-21)
(0.000156912 3.26677e-05 -2.42172e-23)
(0.000315566 0.00177792 4.14158e-22)
(1.74257e-05 0.000517499 4.41188e-23)
(0.00037524 0.00162299 4.07098e-21)
(0.00114254 0.000104273 -2.48941e-21)
(0.00102486 0.00189582 -4.10253e-22)
(8.47242e-05 0.0016835 6.39366e-22)
(0.00141634 8.03146e-05 0)
(3.7847e-05 6.38428e-06 2.15619e-21)
(9.10523e-06 -2.75197e-05 -5.65867e-22)
(7.37378e-05 0.000648406 -6.78694e-22)
(0.000233784 0.000623381 1.05012e-21)
(0.000556355 0.000378004 -1.68748e-21)
(0.000284383 0.00187691 7.63437e-24)
(0.000358299 0.00208088 0)
(0.000690352 0.000820557 -1.62152e-24)
(0.000554862 0.000684828 -4.75498e-22)
(0.000358002 0.00206723 4.64221e-22)
(3.64669e-05 0.000642197 1.09839e-21)
(9.02922e-06 -2.35584e-05 3.72121e-22)
(0.000574475 0.000305595 2.59234e-21)
(0.000348023 0.00206482 0)
(0.000684342 0.000677987 1.25413e-21)
(0.000138073 0.000767384 -2.18627e-21)
(0.000415249 0.00197123 7.97799e-22)
(0.000351901 0.000524101 8.59433e-22)
(2.32686e-05 -2.53603e-05 -2.83757e-22)
(5.55947e-05 3.95379e-05 3.84488e-22)
(0.000560417 0.000639615 -1.66399e-21)
(2.94314e-07 0.000754341 -1.9606e-21)
(0.000773465 7.83457e-05 -1.61808e-22)
(0.000265296 0.000593899 -1.79845e-21)
(0.00035455 -0.000266866 0)
(0.000342178 0.00200181 -5.96248e-22)
(0.000783624 6.8588e-05 2.87255e-23)