/*--------------------------------*- C++ -*----------------------------------*\
  =========                 |
  \\      /  F ield         | OpenFOAM: The Open Source CFD Toolbox
   \\    /   O peration     | Website:  https://openfoam.org
    \\  /    A nd           | Version:  7
     \\/     M anipulation  |
\*---------------------------------------------------------------------------*/
FoamFile
{
    version     2.0;
    format      ascii;
    class       surfaceScalarField;
    location    "111.5";
    object      phi;
}
// * * * * * * * * * * * * * * * * * * * * * * * * * * * * * * * * * * * * * //

dimensions      [0 3 -1 0 0 0 0];

internalField   nonuniform List<scalar> 
1111
(
7.19289e-09
1.28434e-08
-1.60646e-08
-3.97171e-09
7.11766e-09
-1.17621e-08
1.18373e-08
-1.47282e-08
5.91977e-09
8.726e-09
8.24496e-11
1.01896e-09
-1.18583e-09
-1.44023e-08
1.45692e-08
-1.43702e-08
1.42062e-08
1.18295e-09
-1.60431e-09
1.49161e-08
2.11681e-09
-2.47214e-09
9.24812e-09
-9.09516e-09
2.31918e-09
-6.72434e-09
-1.26099e-08
1.25953e-08
6.73896e-09
-5.01703e-08
-2.61186e-08
7.62889e-08
-8.08388e-09
7.73465e-09
7.46689e-09
3.21126e-09
3.83164e-10
-3.28797e-09
-3.06448e-10
1.58706e-08
-1.62764e-08
-2.32736e-08
2.36794e-08
-9.66707e-09
-7.9013e-09
8.80286e-09
8.76551e-09
-3.56002e-08
1.77398e-08
-3.2388e-08
5.02483e-08
9.49067e-09
-1.95938e-09
-1.42556e-08
-2.10601e-10
1.20785e-09
-2.50743e-09
1.51018e-09
-3.97311e-09
1.32764e-08
1.97392e-09
-1.12772e-08
8.80745e-09
-2.70459e-09
-1.50625e-08
8.9596e-09
3.71465e-08
-2.98142e-08
-7.33222e-09
-1.94076e-08
2.62861e-10
1.72253e-08
1.91937e-09
-1.08608e-09
4.23334e-09
-1.7832e-08
1.46848e-08
-6.12289e-08
-3.96116e-09
6.51901e-08
1.3434e-10
-1.07764e-09
-3.19335e-10
1.26263e-09
-1.81716e-09
-1.36391e-08
-5.39447e-11
-1.9828e-10
1.38776e-10
1.13449e-10
-1.04206e-08
-8.67953e-09
1.32887e-08
5.81149e-09
6.85192e-10
-2.1432e-09
-8.19662e-09
9.65463e-09
8.87802e-09
7.23055e-10
-9.95234e-09
3.51268e-10
-2.86485e-09
-8.13299e-09
1.1208e-08
-2.10135e-10
1.14156e-08
-1.09269e-09
-1.51548e-09
-7.32267e-10
7.45727e-10
-4.08056e-11
2.73462e-11
-1.58915e-11
5.98648e-10
1.29093e-10
-7.1185e-10
-3.62517e-10
-4.0742e-11
3.93443e-10
9.81593e-12
-7.02781e-11
-6.8325e-10
1.17414e-10
6.36114e-10
-1.21859e-10
-6.80686e-10
1.03041e-09
-1.83569e-08
-2.08102e-09
-2.88685e-10
3.40525e-11
-1.07884e-10
1.3378e-08
-1.32477e-08
4.10301e-09
-3.2642e-10
5.07751e-10
2.94207e-10
-4.75538e-10
1.22579e-10
-1.00494e-09
8.90426e-10
-8.06276e-12
-1.78435e-09
1.07141e-08
-1.14019e-08
-1.97199e-10
-1.27916e-10
3.64298e-11
-8.7006e-09
1.06725e-08
-1.00558e-08
1.22946e-08
-1.71313e-08
4.49357e-09
3.43138e-10
3.93323e-11
-1.21095e-10
-1.15435e-10
1.17796e-10
6.98088e-10
-7.0157e-11
-5.94998e-08
7.42273e-08
-1.47276e-08
9.53531e-10
-1.72703e-10
-1.04691e-09
2.66081e-10
1.13471e-09
1.03069e-08
-1.3713e-08
2.27138e-09
-1.96754e-09
7.9398e-09
-8.92626e-09
2.95399e-09
-6.81293e-09
5.54009e-09
5.74746e-09
-4.47461e-09
-7.94219e-09
-1.40661e-09
1.52909e-09
7.81971e-09
-1.82956e-10
-9.09125e-08
9.12987e-08
-2.0317e-10
-2.57705e-10
-8.97487e-08
9.0159e-08
-1.52541e-10
8.30787e-08
-1.49163e-09
1.10092e-10
-8.16972e-08
-2.70262e-09
-6.09968e-10
5.55861e-10
7.78164e-10
-3.80494e-10
3.87291e-09
-7.90524e-10
3.59017e-09
-6.67256e-09
-8.59811e-10
8.04904e-10
-1.49109e-08
6.56952e-09
1.00557e-08
1.08153e-09
-1.08395e-08
-2.97706e-10
-6.03197e-09
1.36621e-08
8.66526e-10
-8.49668e-09
1.43964e-08
-4.62042e-09
3.85593e-09
-1.36319e-08
1.53846e-08
1.67161e-09
-1.62746e-09
-1.8189e-10
-2.00815e-08
-7.43897e-09
2.77024e-08
1.46175e-08
-8.92166e-09
-1.82411e-09
8.09292e-09
-1.23008e-08
6.55034e-11
-2.82993e-11
-1.08411e-09
-3.60892e-08
-2.34106e-08
8.37797e-09
3.28758e-10
3.5879e-09
-6.95448e-09
1.13704e-08
6.25661e-09
-5.2844e-10
2.69101e-10
4.26931e-10
-1.67592e-10
5.64821e-09
-4.84847e-09
3.70502e-09
-4.50477e-09
-3.49166e-10
-5.66454e-10
2.32371e-10
5.54653e-10
-4.7798e-10
5.46602e-11
-6.24425e-10
5.53874e-10
-1.8304e-08
2.37717e-09
1.61691e-09
1.431e-08
1.76003e-10
-6.10868e-10
-9.35742e-11
-4.27463e-09
-1.5221e-08
1.19164e-09
5.62448e-09
1.2133e-08
-5.2425e-09
-1.2515e-08
1.63652e-08
7.64402e-10
-1.58266e-08
-1.30297e-09
-6.07785e-10
3.88757e-10
4.88129e-10
-2.03121e-10
9.00648e-11
1.13057e-10
-7.54224e-09
-3.45258e-09
4.18189e-09
-1.62769e-10
2.63421e-10
-1.00651e-10
1.01654e-09
-1.57118e-08
-7.16128e-10
1.02203e-08
-1.12885e-08
-8.35112e-10
-1.4846e-10
1.3014e-08
4.49265e-09
-4.2172e-09
-1.32895e-08
3.61208e-11
7.25449e-09
-8.04903e-09
6.33463e-09
-1.5404e-09
-9.18399e-09
8.35221e-09
2.37217e-09
-1.98059e-09
7.07686e-10
-1.39481e-08
-8.2623e-11
-8.01461e-11
4.71927e-10
5.4665e-10
-8.96077e-09
7.93181e-10
1.72563e-08
-1.6843e-09
-1.17797e-08
1.31791e-08
-1.39939e-09
1.23063e-08
1.39109e-08
-1.54956e-08
-1.07217e-08
-4.30476e-10
8.24384e-10
-3.93908e-10
7.47762e-11
1.6577e-10
-2.40546e-10
-2.88349e-10
8.98917e-10
-6.10567e-10
1.20651e-09
-9.58725e-10
-2.47787e-10
-1.04816e-08
1.02612e-09
9.4555e-09
1.8055e-09
-5.98986e-10
8.98448e-09
-1.5429e-08
8.04034e-09
-9.53596e-09
6.98326e-11
3.55786e-09
-4.16436e-10
-2.18866e-09
2.2585e-09
-6.33786e-09
7.67494e-09
-1.33709e-09
-3.81596e-10
4.3165e-09
-6.19909e-11
1.72481e-08
-1.44767e-08
-1.63669e-09
-6.2592e-09
5.48612e-09
-1.74497e-11
-1.67055e-10
5.65267e-09
-5.61609e-09
-3.65755e-11
6.79904e-09
4.59662e-09
-7.36839e-11
-1.58699e-08
1.04992e-08
1.76771e-08
5.84816e-09
8.20537e-09
8.15574e-09
-6.84819e-09
1.46429e-09
-1.19459e-08
3.88196e-11
1.64179e-09
-1.30238e-08
2.67782e-09
-4.19327e-10
1.09865e-08
-1.02221e-08
-3.07037e-10
-6.49935e-10
-1.38365e-08
7.88427e-09
6.50121e-10
1.33394e-11
-8.87483e-09
4.95202e-09
-2.99961e-08
-1.25228e-08
-2.86615e-09
1.55243e-09
1.41391e-08
1.1124e-08
-1.08637e-08
-1.43994e-08
1.53482e-08
-3.19269e-09
-1.21555e-08
1.59475e-09
4.03465e-09
-8.26077e-10
-8.62245e-10
-7.7442e-10
1.05657e-09
5.80091e-10
-2.01091e-10
3.17391e-10
3.10632e-10
6.21473e-08
-6.21735e-08
2.62456e-11
6.20665e-08
-6.23709e-08
3.04352e-10
8.37604e-10
6.47302e-08
-6.55576e-08
8.27376e-10
6.4122e-08
6.08186e-10
-2.23624e-10
-6.6503e-08
9.45394e-10
-6.20633e-08
6.19285e-08
1.34765e-10
1.31457e-09
-6.78175e-08
-6.22231e-08
1.59793e-10
1.2801e-08
-4.99079e-10
1.12039e-09
-3.69631e-09
3.075e-09
2.66306e-10
-1.12772e-09
8.21341e-10
-4.64016e-10
1.33894e-09
-1.55103e-09
6.7611e-10
1.32566e-09
-1.38603e-09
3.20682e-11
-3.09031e-11
-3.47595e-09
2.60377e-09
-1.82604e-09
2.69822e-09
-2.76048e-10
-2.66814e-09
2.44511e-09
-3.42264e-09
-5.90044e-09
5.51442e-10
-5.47697e-10
1.08393e-09
1.07635e-09
-6.40261e-09
7.83995e-09
3.15929e-09
1.9716e-08
-4.36783e-09
-6.41458e-10
2.73497e-10
9.19402e-10
-1.00658e-08
-2.60234e-08
5.21705e-09
-4.16258e-09
-3.21095e-09
2.15648e-09
8.33815e-11
2.60365e-11
2.84025e-10
-2.45199e-09
3.26196e-09
9.04892e-09
6.51375e-10
-8.90805e-11
2.02912e-09
-2.21609e-09
1.67909e-09
1.47001e-08
1.33499e-08
-2.69198e-08
3.27246e-08
6.30742e-09
-2.28579e-08
-1.03693e-08
1.85751e-08
-1.80661e-08
1.06149e-08
1.07518e-11
-2.70178e-10
-1.1266e-09
-1.60804e-09
-2.789e-09
3.11086e-09
1.52154e-08
-6.49575e-10
-1.38582e-08
-9.63741e-10
-2.11647e-09
4.12065e-10
1.54876e-08
1.77876e-08
1.36892e-08
7.78188e-10
-1.75342e-09
-1.2714e-08
-1.3804e-09
5.98313e-09
1.26554e-08
-3.75085e-10
-9.55535e-10
-3.69114e-09
2.82705e-09
3.46785e-09
2.51946e-09
1.46098e-08
4.34397e-09
-1.44611e-08
1.81706e-08
-1.76352e-09
2.30445e-09
-3.26621e-09
1.93068e-09
-4.97123e-09
1.29146e-08
-1.19164e-08
-1.40581e-08
2.93025e-10
8.79382e-09
-1.75661e-09
1.46607e-09
1.37446e-09
-8.66819e-09
6.88671e-10
-4.54323e-09
-5.98639e-09
1.21668e-08
-1.48486e-08
9.4862e-10
1.69093e-09
-2.20051e-09
1.69006e-08
-1.6391e-08
-1.16777e-09
1.42074e-08
3.14115e-09
-4.52101e-09
-1.40491e-08
7.61396e-09
-1.74985e-08
-8.18155e-09
6.96137e-09
5.88978e-09
1.47031e-08
-1.01718e-08
2.98823e-09
9.5557e-09
9.79116e-09
3.89694e-09
-4.24787e-09
2.18533e-08
-1.93294e-08
5.09008e-09
-1.07463e-08
2.16929e-09
5.73214e-09
1.40554e-08
-4.16543e-10
1.28363e-08
-1.35875e-08
-1.94511e-09
1.50338e-09
-4.96683e-10
9.38411e-10
1.11178e-08
-6.35851e-09
7.3737e-09
-1.11403e-08
1.47557e-09
-4.74047e-09
1.15622e-08
-1.20642e-08
-7.59637e-09
9.28008e-09
9.43409e-09
1.29937e-08
4.94544e-10
-1.39048e-08
1.36613e-09
7.66797e-10
-1.11993e-08
-6.72328e-09
1.03262e-08
-1.25836e-09
2.50732e-09
-9.02298e-09
4.75606e-09
-5.36606e-09
1.17027e-08
-3.45998e-09
-1.1929e-08
3.68628e-09
-4.45277e-09
1.1415e-08
1.73592e-09
1.09628e-09
-5.08397e-09
-1.79304e-08
1.05887e-08
1.24257e-08
6.90717e-10
-1.11322e-08
-1.00897e-08
1.61378e-08
1.27138e-08
2.89337e-09
-9.87507e-09
-1.33569e-08
-3.23182e-10
-1.27568e-08
1.72866e-10
-7.69786e-10
1.18049e-08
1.25572e-08
-8.23667e-09
1.67714e-08
-1.61235e-08
3.69612e-09
-5.27321e-10
1.82104e-09
1.30162e-08
-3.94286e-09
-1.27893e-08
-4.92956e-09
1.99327e-09
4.57808e-09
1.24466e-08
-7.23698e-09
1.02147e-09
-1.70095e-09
3.20721e-10
-5.64872e-10
5.99165e-09
2.64766e-08
6.17473e-11
-9.04886e-09
8.98711e-09
2.86907e-08
-2.24362e-08
2.21316e-08
1.98325e-08
-1.27189e-08
-2.73812e-09
1.5182e-08
1.36611e-10
-1.21481e-08
-4.72096e-10
-5.9957e-09
-1.8224e-09
2.13498e-09
1.42335e-09
-5.7135e-10
-1.12109e-08
1.16779e-08
1.04301e-10
2.93099e-09
-4.90655e-09
-1.12706e-08
1.07989e-08
-9.39477e-10
-1.09707e-08
-2.98529e-10
-1.14805e-08
-2.39166e-09
-1.21513e-08
2.13537e-09
7.87781e-09
5.1627e-09
-6.06017e-10
-1.18298e-08
1.18644e-08
5.31777e-10
-8.95915e-09
5.09201e-09
-1.61082e-09
2.05669e-09
-1.76438e-09
-1.30671e-08
-1.23608e-08
1.18165e-08
-1.01385e-08
-1.58375e-08
1.0106e-08
9.3135e-09
7.84681e-10
2.77055e-09
-1.18194e-08
1.1619e-08
1.66147e-09
3.85852e-09
2.52856e-10
-4.33545e-10
-1.68476e-10
-4.16682e-09
2.45741e-09
-4.07058e-10
1.32358e-10
-1.56388e-10
2.40293e-11
-2.73178e-09
1.31889e-08
2.2567e-09
2.51763e-09
3.93818e-10
-1.22483e-09
-6.53386e-10
-2.20208e-09
-1.49357e-10
1.31446e-08
1.02046e-08
-2.7759e-10
6.70025e-09
-1.25536e-09
-5.16731e-09
-9.87231e-09
-5.16471e-09
9.91228e-11
3.32357e-11
4.85005e-09
1.36458e-09
-1.73468e-08
-2.54408e-10
-6.87131e-10
-2.77697e-09
1.03028e-09
3.25321e-09
6.195e-08
-8.56604e-11
-6.18643e-08
6.2374e-08
1.88653e-10
-6.25627e-08
-1.40972e-08
-3.72986e-10
1.44261e-08
4.40607e-11
3.26074e-09
-1.68743e-09
2.39415e-09
1.8006e-09
-4.56537e-09
-2.15479e-10
-4.66547e-10
3.79121e-10
-8.01654e-11
3.53493e-10
-2.28552e-10
1.98082e-08
1.00369e-09
-1.59619e-08
-8.93042e-11
-1.94914e-09
1.26637e-08
2.30168e-09
1.82617e-09
5.34302e-09
-2.14407e-09
-7.72316e-08
-2.41784e-08
-5.07321e-09
1.5843e-08
2.50663e-09
1.62099e-10
-2.77123e-09
-9.52881e-10
1.83804e-10
-1.86458e-10
-9.50762e-09
-3.72967e-10
9.88059e-09
-1.09465e-08
-6.55157e-09
1.07747e-08
-9.55259e-09
8.73499e-09
3.19529e-10
1.34595e-09
9.08369e-09
-9.08251e-09
-1.18426e-12
5.32776e-10
8.76951e-11
1.09662e-08
4.13217e-10
-6.29115e-10
-4.236e-12
-1.42569e-08
-4.23929e-10
-1.38898e-08
1.2823e-08
-1.19377e-08
-6.60355e-08
6.49936e-08
1.04195e-09
1.79804e-10
-1.53767e-10
1.21589e-08
-1.61797e-10
5.40969e-12
-2.13187e-09
2.74749e-09
-3.40436e-09
-1.34659e-08
-1.62599e-09
2.5781e-09
-4.63673e-09
-1.42045e-08
1.49449e-09
5.52711e-09
9.76954e-09
-9.14167e-09
-1.82671e-10
2.08746e-11
-9.2783e-09
-1.3508e-08
1.50958e-10
-6.26911e-08
2.35549e-10
6.24556e-08
6.95452e-10
6.34265e-08
-2.23511e-10
-1.70648e-09
-1.4513e-08
1.07397e-10
-6.34097e-08
6.33023e-08
1.85301e-10
-6.29511e-08
6.27658e-08
2.81159e-10
6.17972e-08
1.50509e-10
-6.19477e-08
6.16283e-08
1.68854e-10
-8.78887e-08
8.84978e-08
-9.34006e-13
9.33923e-08
-9.30988e-08
-2.67255e-10
-8.66282e-08
-4.33097e-10
9.33514e-08
-1.82669e-10
-8.49155e-08
-7.67304e-10
9.3482e-08
1.73726e-10
-5.22243e-10
1.96165e-09
9.2358e-08
-6.93092e-08
6.21386e-08
-6.23215e-08
-6.29488e-08
6.14859e-08
1.42382e-10
-3.17968e-09
2.97144e-09
-1.42528e-08
3.82743e-11
6.08487e-11
9.89109e-10
8.68533e-09
-1.13899e-08
3.83417e-08
-3.45751e-08
-1.67905e-08
1.38243e-08
-2.73445e-11
-1.91681e-10
1.06458e-10
4.96213e-10
-1.06421e-10
2.84451e-10
4.37408e-09
1.06009e-09
-3.5035e-09
-1.09898e-10
1.43951e-10
-7.34677e-11
-2.6154e-09
1.33371e-08
2.46718e-09
-1.44194e-08
-2.62406e-09
-3.21586e-09
5.47586e-09
1.05471e-09
-2.59933e-09
1.43951e-08
-1.20707e-09
-1.40368e-09
1.29562e-09
-8.1362e-09
-1.90895e-08
-1.35364e-08
8.07602e-09
5.7534e-09
-1.71125e-10
-5.80537e-10
2.88664e-09
1.44991e-08
2.29531e-09
-1.87835e-09
-3.45853e-10
3.9609e-10
-2.17292e-10
1.58876e-08
-6.13771e-10
-1.56468e-08
5.35813e-10
1.52503e-10
3.41489e-10
-2.80518e-10
3.35801e-09
-1.61288e-08
3.89729e-10
-1.43982e-09
-2.01928e-09
-2.27093e-09
1.58095e-08
-9.05932e-08
-1.34056e-10
9.16782e-08
-1.90922e-10
-8.91636e-08
-4.77726e-10
9.31015e-08
-2.75191e-10
-9.29119e-08
-5.25518e-10
-1.51329e-09
1.69235e-08
9.19797e-08
-1.98643e-10
2.96596e-11
-2.20844e-10
9.64886e-09
2.37445e-09
-7.06512e-09
-1.23208e-08
-5.6755e-09
8.36631e-09
1.53295e-09
-6.73997e-09
-5.97333e-09
9.0626e-09
-3.41351e-11
1.012e-08
1.94978e-08
-1.79865e-08
3.09042e-09
-1.28309e-08
3.132e-09
-6.99579e-08
3.92243e-09
-2.06025e-08
-1.30405e-08
-4.361e-10
-5.91711e-09
-1.53141e-08
9.08307e-09
-1.5067e-08
3.67794e-10
3.11658e-10
-1.9629e-09
-1.67936e-08
1.71815e-08
6.98267e-09
-7.59264e-09
-4.30312e-09
1.53526e-08
-1.68964e-09
7.32093e-10
-7.13459e-10
1.53504e-11
1.19672e-08
3.31508e-09
7.09122e-08
-1.82395e-08
6.42093e-10
-1.51095e-08
-2.08065e-10
-2.38438e-10
-1.50575e-10
6.09486e-08
-6.12237e-08
-6.33801e-08
-6.31498e-08
-6.42267e-11
-2.62196e-10
-9.25855e-08
-6.04515e-08
6.24132e-08
6.51037e-08
-6.02778e-08
6.45814e-08
-6.04605e-08
6.38141e-08
-6.07277e-08
6.3381e-08
9.23084e-08
2.38473e-10
-6.33091e-09
7.51298e-08
-6.54838e-08
2.11721e-11
-2.11721e-11
-1.05325e-10
-2.9639e-10
1.54744e-08
-6.073e-13
6.073e-13
2.72889e-10
1.51352e-09
1.39153e-08
1.34753e-08
-2.7036e-09
3.71283e-09
6.73134e-09
1.70426e-09
3.30168e-10
-2.20842e-10
-2.95967e-09
1.45727e-08
1.48418e-08
-4.29313e-09
1.18206e-08
1.52674e-10
1.24074e-10
2.64341e-09
-7.44495e-10
-1.44852e-09
-5.85535e-09
-1.90425e-10
-3.62661e-10
1.53141e-08
2.10871e-10
3.55137e-11
1.42095e-08
-2.62861e-08
1.78884e-08
2.70826e-09
1.18016e-09
2.50001e-09
-3.72168e-09
1.94272e-08
-1.82055e-08
-6.14506e-11
-6.35781e-11
-1.44137e-09
-7.92139e-08
-7.07505e-08
1.19951e-09
-2.85807e-10
5.95103e-10
2.30158e-08
1.86135e-08
-6.43923e-09
7.73258e-11
-4.18993e-09
-2.52536e-09
2.9963e-08
1.61692e-10
1.48185e-08
7.35783e-08
3.35276e-11
4.9844e-10
-1.30901e-10
-1.87683e-10
-3.54627e-09
2.43608e-08
-1.4868e-08
8.50127e-10
-1.42049e-08
-3.9677e-11
2.04091e-08
-2.87694e-08
9.66083e-10
1.83144e-09
-1.53628e-10
)
;

boundaryField
{
    back
    {
        type            empty;
        value           nonuniform 0();
    }
    ingreso
    {
        type            calculated;
        value           nonuniform List<scalar> 
14
(
-1.54286e-08
-1.54288e-08
-1.54288e-08
-1.54288e-08
-1.54286e-08
-1.54283e-08
-1.54288e-08
-1.54288e-08
-1.54286e-08
-1.54286e-08
-1.54288e-08
-1.5428e-08
-1.5428e-08
-1.54286e-08
)
;
    }
    salida
    {
        type            calculated;
        value           nonuniform List<scalar> 2(1.0141e-07 1.1459e-07);
    }
    front
    {
        type            empty;
        value           nonuniform 0();
    }
    defaultFaces
    {
        type            calculated;
        value           uniform 0;
    }
}


// ************************************************************************* //
