/*--------------------------------*- C++ -*----------------------------------*\
  =========                 |
  \\      /  F ield         | OpenFOAM: The Open Source CFD Toolbox
   \\    /   O peration     | Website:  https://openfoam.org
    \\  /    A nd           | Version:  8
     \\/     M anipulation  |
\*---------------------------------------------------------------------------*/
FoamFile
{
    version     2.0;
    format      ascii;
    class       volScalarField;
    location    "5.4";
    object      p;
}
// * * * * * * * * * * * * * * * * * * * * * * * * * * * * * * * * * * * * * //

dimensions      [0 2 -2 0 0 0 0];

internalField   nonuniform List<scalar> 
5490
(
5.60421e-06
6.00873e-06
4.72056e-06
5.70772e-06
8.71621e-07
1.02393e-05
1.06478e-05
1.06144e-05
3.95239e-06
1.05866e-05
4.4041e-06
4.29809e-06
3.41309e-06
3.9906e-06
3.83516e-06
1.05955e-05
1.06505e-05
1.03342e-05
5.67282e-06
4.06831e-06
3.13115e-06
1.06484e-05
1.03502e-05
1.06483e-05
3.01256e-06
3.10508e-06
3.51859e-06
5.49928e-06
1.00354e-05
1.9641e-06
5.28883e-06
1.06367e-05
8.1799e-06
6.94616e-06
2.39053e-06
5.3217e-06
9.95387e-06
5.66228e-06
1.2944e-06
2.77812e-06
5.46504e-06
9.98926e-06
4.61475e-06
1.00136e-05
1.05339e-05
7.04422e-06
1.85124e-06
1.40856e-06
5.66436e-06
9.07113e-06
1.05657e-05
2.07436e-06
2.49328e-06
1.07497e-06
3.30794e-06
6.9431e-06
9.53705e-06
1.07749e-05
3.93187e-06
2.05756e-06
1.00132e-05
4.21377e-07
6.65974e-06
1.06248e-05
1.0649e-05
1.04794e-05
1.05799e-05
9.9046e-06
1.68487e-06
1.05529e-05
1.30215e-06
2.81865e-06
1.0597e-05
1.06274e-05
1.05532e-05
2.47291e-06
1.02594e-05
3.98595e-07
5.99254e-06
4.70136e-06
9.99793e-06
9.21195e-06
1.0173e-05
5.78386e-06
8.76813e-07
6.49674e-06
1.03231e-05
1.02629e-05
2.61274e-06
9.93351e-06
1.05982e-05
1.01864e-05
1.13526e-06
1.06122e-05
5.46282e-06
1.06028e-05
4.13951e-06
1.01485e-05
9.93866e-06
3.31562e-06
4.1197e-06
2.56726e-06
7.21922e-06
1.06142e-05
7.08714e-06
6.76557e-06
2.53857e-06
9.813e-06
1.06333e-05
1.06388e-05
1.0619e-05
1.06207e-05
1.04849e-05
7.09396e-06
4.90184e-06
9.97889e-06
5.97527e-06
1.04685e-05
1.04086e-05
2.15762e-06
7.18518e-06
8.16832e-06
1.01015e-05
5.89401e-06
1.05952e-05
1.05497e-05
3.9067e-06
6.22631e-07
1.06212e-05
3.77012e-06
1.05046e-05
9.95408e-06
3.18076e-06
4.64958e-06
1.52298e-06
1.06387e-05
1.07867e-05
1.05971e-05
1.05623e-05
6.9766e-06
1.06137e-05
1.06612e-05
2.92346e-06
9.88188e-06
1.06224e-05
1.05766e-05
-1.96771e-09
1.05863e-05
2.2536e-06
1.0104e-05
1.06401e-05
1.06375e-05
4.22527e-06
1.06638e-05
9.8477e-06
1.06521e-05
1.06403e-05
1.04891e-05
1.05749e-05
3.83e-06
4.96277e-06
9.61688e-06
9.85191e-06
1.05119e-05
1.0622e-05
1.04158e-05
1.06318e-05
3.51826e-07
1.01784e-05
2.02995e-07
1.07591e-05
7.12936e-07
3.13125e-06
1.06372e-05
4.24613e-06
1.79626e-06
2.3261e-06
1.06621e-05
3.00919e-06
3.75036e-06
1.05177e-05
1.06338e-05
5.94217e-06
5.55159e-06
1.06526e-05
1.56642e-06
2.21472e-06
9.98738e-07
1.06367e-05
1.05881e-05
1.07332e-05
1.46326e-06
5.87094e-06
1.06362e-05
1.05684e-05
5.00818e-06
6.96138e-06
1.06542e-05
1.01502e-05
2.18198e-06
1.05245e-05
6.87229e-06
1.06558e-05
1.06177e-05
8.91379e-06
1.09787e-05
1.06323e-05
1.0505e-05
4.62503e-06
1.00831e-05
1.0636e-05
1.06452e-05
5.39782e-06
5.17708e-06
4.83119e-06
7.07603e-06
4.87325e-06
4.5139e-06
1.08196e-05
1.06524e-05
1.03498e-05
1.06344e-05
9.41995e-06
3.20864e-06
3.09467e-06
8.11865e-07
2.45124e-06
2.42632e-06
1.19018e-06
1.0653e-05
1.07496e-06
9.94887e-06
1.06374e-05
1.05801e-05
6.82952e-06
9.7687e-06
1.05386e-05
1.06382e-05
1.06582e-05
3.62388e-06
1.06551e-05
5.05699e-06
2.35326e-07
2.10208e-06
1.0661e-05
1.03585e-05
1.0058e-05
7.90657e-06
9.91323e-06
1.06314e-05
1.06548e-05
8.5395e-06
1.05561e-05
9.94422e-06
1.97483e-06
6.92914e-06
8.04986e-06
2.57872e-06
4.17563e-06
1.05375e-05
9.87567e-06
5.80708e-06
5.93613e-06
1.07888e-05
1.06341e-05
1.02211e-05
7.15083e-06
9.8525e-06
1.06394e-05
1.06014e-05
1.06299e-05
4.8475e-06
1.06388e-05
1.04636e-05
8.49753e-06
1.06351e-05
1.06214e-05
1.25313e-06
5.46509e-06
7.11707e-06
1.06537e-05
1.06367e-05
1.06579e-05
9.82487e-06
4.33306e-06
1.05998e-05
9.82156e-06
1.06353e-05
9.64367e-06
4.06605e-06
8.23032e-07
9.96742e-06
1.02126e-05
7.25359e-06
3.76959e-06
1.02316e-05
1.05745e-05
1.06355e-05
8.60053e-07
1.00732e-05
6.15565e-06
1.05328e-05
5.69119e-06
1.01392e-05
3.46893e-06
1.18402e-06
1.0809e-05
1.05849e-05
6.31123e-06
1.41579e-06
3.02537e-06
1.03381e-05
1.01088e-05
6.66913e-06
4.21236e-06
6.91486e-06
1.58334e-07
1.0542e-05
9.10137e-06
1.06605e-05
1.06171e-05
2.34952e-06
3.65905e-06
1.05878e-05
1.05419e-05
1.3241e-06
6.78086e-07
3.50596e-06
1.03459e-05
5.40039e-06
6.80718e-06
1.06324e-05
1.06358e-05
9.79758e-06
5.14841e-06
1.77528e-06
1.06596e-05
4.04764e-06
1.06586e-05
1.04645e-05
1.06503e-05
1.05975e-05
6.16533e-06
6.82986e-06
4.31453e-06
1.19671e-06
1.23975e-06
1.06395e-05
6.20485e-06
1.02226e-06
1.06638e-05
6.41057e-06
2.32866e-06
2.39021e-06
3.94078e-06
1.06333e-05
4.52228e-06
7.38414e-06
1.06196e-05
5.74433e-06
6.2798e-06
3.50696e-06
1.05772e-05
1.00528e-06
1.45192e-06
5.90611e-07
9.42718e-07
1.06091e-05
1.05955e-05
6.85865e-06
1.2606e-06
2.30828e-06
2.27253e-06
1.06324e-05
9.36794e-06
1.06326e-05
1.06608e-05
3.16033e-06
1.05958e-05
1.0136e-05
1.25807e-06
2.41962e-06
6.66031e-06
7.02689e-06
8.33915e-06
3.57951e-06
4.25724e-06
2.81879e-06
3.23101e-06
1.06353e-05
9.9058e-06
3.71273e-06
1.06095e-05
6.49959e-07
3.04689e-06
3.0377e-06
3.04011e-06
1.06327e-05
1.54823e-06
2.30929e-06
1.05654e-05
9.41383e-06
8.7861e-07
1.02599e-05
3.49596e-06
1.06398e-05
1.06587e-05
1.0635e-05
1.06237e-05
2.06268e-06
7.2413e-06
1.06559e-05
5.7583e-06
9.06228e-06
4.4762e-06
3.04473e-06
2.48214e-06
1.06506e-05
1.06587e-05
6.54278e-06
2.20683e-06
6.66445e-06
7.59131e-06
4.05282e-06
9.90166e-06
1.03913e-05
3.88176e-06
1.06312e-05
1.13187e-06
1.06436e-05
4.36411e-06
4.35849e-06
4.35376e-06
4.14309e-07
1.03923e-05
1.0637e-05
1.05465e-05
9.85973e-06
3.26348e-06
1.36727e-06
7.35213e-06
5.24178e-06
1.21874e-06
1.02421e-05
5.77649e-06
1.05896e-05
6.98521e-06
1.06262e-05
1.0642e-05
1.01938e-05
5.12976e-06
1.04818e-05
4.36355e-06
3.78461e-06
5.12652e-06
5.12517e-06
1.06277e-05
1.06357e-05
6.00859e-06
5.68645e-06
5.90868e-06
1.19475e-06
6.87857e-06
7.68466e-06
1.03942e-05
7.08548e-06
5.08164e-06
1.03485e-05
6.46347e-06
8.83981e-06
7.17841e-06
5.1253e-06
4.56772e-06
4.14874e-06
8.44589e-08
1.00514e-05
1.02216e-05
7.25475e-06
7.42663e-06
1.06248e-05
1.0625e-05
7.05773e-06
6.35233e-06
1.0839e-07
5.34291e-06
1.19793e-06
1.06592e-05
6.93161e-06
5.49186e-06
2.45765e-07
3.68662e-06
6.41008e-07
6.10196e-06
1.05987e-05
9.98637e-06
1.06251e-05
1.05986e-05
1.06396e-05
1.42166e-06
9.80965e-07
1.34516e-06
1.33551e-06
1.0642e-05
1.06422e-05
1.04827e-05
6.00199e-06
2.6538e-06
6.46685e-06
9.69109e-06
1.01441e-05
1.03927e-05
9.9939e-06
1.06258e-05
1.06129e-05
1.0625e-05
1.06407e-05
9.9981e-06
1.17145e-06
6.20494e-06
1.03833e-05
1.02392e-05
1.06325e-05
9.89551e-06
9.92796e-06
1.064e-05
1.06054e-05
1.59675e-06
1.03672e-05
1.06008e-05
6.0854e-07
1.0654e-05
1.53004e-06
1.07604e-05
1.07398e-05
6.66215e-06
8.85149e-06
1.06322e-05
9.94279e-06
1.06514e-05
3.60869e-06
1.05155e-05
9.95774e-06
1.05049e-05
9.20356e-06
1.06217e-05
1.06008e-05
9.78033e-06
9.81005e-06
1.04482e-05
1.06433e-05
5.45644e-06
8.35207e-06
5.99528e-07
1.04692e-05
1.06129e-05
1.67288e-06
1.02459e-05
1.06016e-05
5.27299e-07
1.06235e-05
1.06636e-05
1.06242e-05
1.06399e-05
1.05357e-05
9.68726e-06
8.09916e-06
1.03775e-05
7.85876e-06
1.6625e-06
1.05062e-05
5.1488e-07
9.72393e-06
1.0643e-05
1.05314e-05
1.06402e-05
1.06582e-05
1.031e-05
7.41665e-06
9.19316e-06
2.0767e-06
1.06391e-05
9.94673e-06
9.96709e-06
1.28154e-06
7.33884e-06
9.58714e-07
9.41234e-06
1.06242e-05
1.05795e-05
1.06286e-05
1.02095e-05
1.04849e-05
1.06378e-05
1.02652e-05
1.0626e-05
1.06078e-05
1.0482e-05
1.06612e-05
1.06066e-05
1.05938e-05
1.10234e-06
2.60704e-06
1.01933e-05
1.06621e-05
5.572e-06
1.29641e-06
4.24602e-06
1.03499e-05
1.4801e-06
7.0376e-06
1.06213e-05
1.06061e-05
9.78592e-06
4.42404e-06
5.07476e-06
1.30057e-06
1.04747e-05
9.96638e-06
1.06342e-05
7.88963e-06
1.07459e-05
1.36389e-06
1.25838e-06
2.11215e-06
1.67985e-07
1.06333e-05
1.06007e-05
5.20421e-06
1.03314e-05
9.63251e-06
1.06213e-05
9.89017e-06
1.04903e-05
8.90467e-06
1.00124e-05
1.93685e-06
7.77624e-06
1.4838e-06
9.88936e-06
1.06786e-05
1.06939e-05
1.00194e-05
1.06388e-05
1.06314e-05
1.01252e-05
1.0633e-06
7.5389e-06
1.06575e-05
1.03228e-05
2.89039e-06
8.60859e-06
1.01042e-05
7.20587e-06
1.06624e-05
1.05272e-05
1.02952e-05
1.06409e-05
1.02149e-05
9.86862e-06
9.84673e-06
9.96389e-06
7.31989e-06
9.77135e-06
1.06226e-05
1.86326e-06
1.0761e-05
6.25273e-06
8.51105e-06
1.00112e-05
1.04627e-05
1.06017e-05
1.07527e-05
1.01679e-05
1.05092e-05
1.0274e-05
9.87064e-06
1.03541e-05
4.22408e-06
1.02002e-05
9.95257e-06
1.06026e-05
9.81123e-06
6.85777e-06
7.36207e-06
6.87834e-06
1.07266e-05
1.0625e-05
1.05639e-05
1.06374e-05
1.45834e-06
9.88048e-06
1.06408e-05
3.60425e-06
7.18337e-06
1.0558e-05
1.06083e-05
9.93373e-06
1.06342e-05
7.78329e-06
9.81198e-06
9.9907e-06
3.26262e-06
7.76828e-06
9.92813e-06
4.98303e-06
1.06304e-05
1.02406e-05
9.93188e-06
9.95512e-06
7.61839e-06
1.01454e-05
9.95525e-06
1.0217e-05
1.06488e-05
1.06366e-05
1.0609e-05
1.0636e-05
7.85661e-06
7.64195e-06
9.83318e-06
1.05858e-05
7.3887e-06
3.99567e-06
1.05024e-05
1.68373e-06
1.02497e-05
1.06374e-05
7.03981e-06
7.04182e-06
6.79246e-06
1.06112e-05
9.76204e-06
9.71926e-06
9.94753e-06
1.00863e-05
1.06193e-05
1.02692e-05
9.96236e-06
6.94102e-06
1.06388e-05
9.97358e-06
8.84509e-06
5.79795e-06
9.13488e-06
4.13006e-06
1.04789e-05
1.00509e-05
1.06381e-05
9.95608e-06
1.07731e-05
1.03682e-05
7.75564e-07
1.03869e-05
1.05915e-05
1.0534e-05
7.52423e-06
1.02909e-05
1.06372e-05
9.93813e-06
9.89523e-06
1.02191e-05
1.06258e-05
7.59342e-06
1.06303e-05
3.42307e-06
1.06413e-05
1.05863e-05
7.55913e-06
3.88791e-06
4.32068e-06
1.06244e-05
7.37893e-06
1.01577e-05
7.6787e-06
1.02651e-05
1.00746e-05
1.04899e-05
1.36916e-06
1.01764e-05
1.06399e-05
3.99378e-06
1.03859e-05
8.90032e-06
9.92386e-06
6.26015e-06
7.60885e-06
9.79556e-06
1.06383e-05
1.06146e-05
1.02075e-05
1.03491e-05
1.04707e-05
7.71368e-06
6.79231e-06
9.97029e-06
1.01876e-05
5.89068e-06
1.03174e-05
1.06163e-05
1.05014e-05
4.94047e-07
1.01395e-05
1.02006e-05
6.23511e-06
1.04057e-05
1.06192e-05
1.06464e-05
1.02353e-05
6.78574e-06
1.05583e-05
1.03574e-05
1.05743e-05
7.65014e-06
1.05684e-05
8.14778e-06
1.02482e-05
1.02262e-05
1.06403e-05
2.75483e-06
7.47884e-06
6.21906e-07
4.28341e-06
1.03712e-05
6.78486e-06
1.05466e-05
9.74712e-06
4.18292e-06
1.81162e-06
1.07508e-05
1.0327e-05
1.06466e-05
1.04471e-05
3.71397e-06
7.89802e-06
8.70948e-06
1.06481e-05
1.06459e-05
1.03292e-05
1.0701e-05
1.06173e-05
2.95293e-06
1.02803e-05
2.50083e-06
8.203e-06
1.00018e-05
7.53603e-06
9.97255e-06
1.06237e-05
1.03334e-05
9.76102e-06
2.34579e-06
2.28485e-06
1.01753e-05
1.03203e-05
1.05614e-05
1.06203e-05
1.05015e-05
1.06228e-05
1.04873e-05
7.4065e-06
1.06328e-05
1.06361e-05
1.74331e-06
3.2741e-06
1.01139e-05
1.0282e-05
9.01098e-07
1.06472e-05
1.05206e-05
6.86469e-06
1.0598e-05
8.47056e-06
1.01096e-05
8.68672e-06
1.049e-05
1.06176e-05
3.5351e-06
8.04562e-06
1.02431e-05
3.81923e-06
1.04462e-05
9.11922e-06
7.59163e-06
7.70642e-06
1.05354e-05
1.05101e-05
9.90864e-06
1.04771e-05
1.03761e-05
6.88936e-06
1.06407e-05
1.06312e-05
1.01749e-05
9.5459e-07
4.58946e-06
6.81244e-06
6.53935e-07
1.04077e-05
1.05781e-05
8.0845e-06
7.81039e-06
1.03002e-05
9.68244e-06
1.0506e-05
1.05924e-05
1.01907e-05
1.03478e-05
8.31464e-06
1.21677e-06
1.06194e-05
7.25885e-06
1.062e-05
7.2913e-06
7.34027e-06
1.05565e-05
1.03717e-05
1.03805e-05
1.06595e-05
1.03033e-05
1.06294e-05
1.05251e-05
1.05176e-05
1.00007e-05
7.62425e-07
1.06159e-05
1.07034e-05
1.06357e-05
9.33324e-06
1.06457e-05
6.93578e-06
6.6613e-06
1.05708e-05
1.03249e-05
1.03746e-05
1.03493e-05
1.0553e-05
8.73782e-06
1.06066e-05
1.063e-05
1.0621e-05
1.05725e-05
1.05354e-05
1.06189e-05
1.01644e-05
1.05322e-05
1.07044e-05
1.05802e-05
8.05512e-06
7.4692e-06
1.05033e-05
1.07627e-05
1.06492e-05
1.0544e-05
1.06115e-05
1.06138e-05
1.04922e-05
1.07442e-05
1.06559e-05
8.00347e-06
1.0636e-05
7.73132e-06
1.05981e-05
1.06599e-05
1.04804e-05
1.05578e-05
1.00318e-05
1.06216e-05
7.48519e-06
1.04166e-05
1.02385e-05
1.05075e-05
9.91811e-06
1.06925e-05
1.06706e-05
1.05991e-05
7.51759e-06
7.88498e-06
1.02222e-05
1.00551e-05
1.06455e-05
1.03063e-05
8.47241e-06
7.21139e-06
1.05473e-05
1.05899e-05
1.54834e-06
9.12278e-06
1.05045e-05
1.0613e-05
8.24875e-06
1.04219e-05
7.21072e-06
1.05925e-05
1.06022e-05
1.06156e-05
7.52757e-06
1.05905e-05
1.06052e-05
1.05864e-05
1.03851e-05
7.43617e-06
1.05058e-05
1.06128e-05
6.2172e-07
7.80082e-06
2.40765e-06
1.06493e-05
1.0656e-05
1.06173e-05
1.06061e-05
1.05778e-05
1.06208e-05
1e-05
1.02302e-05
1.06059e-05
1.04679e-05
7.30762e-06
1.03706e-05
1.04722e-05
1.06148e-05
1.02404e-06
1.05876e-05
1.06155e-05
1.05968e-05
1.07082e-05
1.05131e-05
1.06205e-05
1.05057e-05
1.66012e-06
1.06173e-05
1.08755e-05
1.05596e-05
1.06384e-05
1.06361e-05
1.06221e-05
3.38344e-06
1.05696e-05
1.01554e-05
7.73971e-06
1.07749e-05
1.06067e-05
1.0649e-05
1.05311e-05
1.04279e-05
1.0611e-05
1.06382e-05
1.06202e-05
1.06499e-05
1.04658e-05
8.02051e-06
1.06237e-05
1.0617e-05
1.06083e-05
1.03554e-05
1.05378e-05
1.06138e-05
1.06274e-05
1.06286e-05
1.05924e-05
1.06207e-05
9.99267e-06
8.07162e-06
1.06217e-05
1.06877e-05
1.05576e-05
7.36762e-06
1.05911e-05
1.06266e-05
1.06241e-05
1.06409e-05
1.06286e-05
1.04683e-05
1.06186e-05
1.05224e-05
1.05282e-05
5.7875e-06
1.08159e-05
1.05965e-05
7.09783e-06
1.05668e-05
1.00255e-05
1.0627e-05
1.05162e-05
1.06129e-05
8.86142e-06
1.064e-05
1.06377e-05
1.05679e-05
6.00069e-06
1.06242e-05
1.06398e-05
7.5017e-06
1.05884e-05
1.0622e-05
1.06163e-05
1.06077e-05
1.06013e-05
1.06383e-05
1.05193e-05
1.06269e-05
1.04715e-05
4.16738e-06
7.05178e-06
1.06153e-05
1.05641e-05
1.06182e-05
1.0633e-05
3.60637e-06
1.03525e-05
1.05875e-05
1.03195e-05
1.06133e-05
6.96195e-06
1.06129e-05
1.06096e-05
1.05376e-05
1.06456e-05
9.98374e-06
1.06286e-05
1.04018e-05
6.42496e-06
2.83447e-06
1.0626e-05
1.0543e-05
1.05978e-05
1.05966e-05
1.06502e-05
5.57452e-06
1.05325e-05
1.05869e-05
7.14152e-06
1.0511e-05
1.06109e-05
1.06127e-05
1.05235e-05
1.06249e-05
1.06031e-05
2.16976e-06
1.06281e-05
1.07801e-05
8.0144e-06
9.89034e-06
7.22542e-06
6.75494e-06
1.06455e-05
1.06193e-05
1.06212e-05
1.06471e-05
1.06086e-05
7.81963e-06
6.24795e-06
1.06384e-05
1.06165e-05
1.06393e-05
7.23069e-06
1.06044e-05
1.06212e-05
1.05812e-05
1.06163e-05
1.06393e-05
1.06353e-05
1.06201e-05
1.0642e-05
1.08443e-05
7.61404e-06
1.07004e-05
1.06214e-05
7.5636e-06
1.06194e-05
1.06691e-05
1.06516e-05
1.07024e-05
1.06252e-05
5.4341e-06
1.05856e-05
1.06456e-05
1.06224e-05
1.06413e-05
1.06772e-05
6.96257e-06
1.06208e-05
1.05868e-05
1.06566e-05
1.08263e-05
1.06239e-05
1.06417e-05
1.06363e-05
1.05748e-05
1.06228e-05
1.06431e-05
1.06413e-05
7.24823e-06
8.11109e-06
1.06433e-05
7.81987e-06
1.05687e-05
1.06144e-05
1.06225e-05
1.06445e-05
7.885e-06
4.53346e-06
1.06209e-05
1.06714e-05
1.06141e-05
1.06011e-05
1.05704e-05
1.06401e-05
1.05808e-05
6.98042e-06
1.05824e-05
1.06202e-05
1.05368e-05
7.55321e-06
1.06321e-05
7.50805e-06
1.0603e-05
1.06731e-05
1.06203e-05
1.06151e-05
1.06459e-05
1.05478e-05
1.06323e-05
1.06083e-05
1.05859e-05
1.06133e-05
1.06206e-05
1.05821e-05
1.06223e-05
7.8501e-06
1.06255e-05
1.06384e-05
1.06096e-05
1.05397e-05
1.06182e-05
1.06236e-05
1.05762e-05
1.05848e-05
2.16574e-06
1.06143e-05
1.06214e-05
1.06006e-05
1.06112e-05
1.06482e-05
1.05733e-05
1.06553e-05
7.09437e-06
1.06365e-05
1.06126e-05
1.0563e-05
7.56129e-06
1.06249e-05
1.05973e-05
-9.05142e-08
1.06352e-05
1.06475e-05
1.05819e-05
1.05953e-05
1.06504e-05
2.93382e-06
5.44983e-06
1.07111e-05
1.05521e-05
1.07264e-05
6.94032e-06
1.05787e-05
3.87444e-06
1.06158e-05
1.05572e-05
1.06252e-05
1.06527e-05
7.00861e-06
1.06612e-05
7.43289e-06
1.05761e-05
7.55596e-06
1.06821e-05
1.06052e-05
1.06143e-05
1.06407e-05
1.06422e-05
1.06278e-05
1.03026e-05
1.05864e-05
1.06137e-05
1.06303e-05
1.00145e-05
1.06434e-05
1.08189e-05
1.06438e-05
1.05877e-05
1.06072e-05
7.0553e-06
1.06212e-05
1.06428e-05
1.06201e-05
1.00101e-05
1.05845e-05
1.06799e-05
7.32229e-06
7.3996e-06
4.25378e-06
1.06294e-05
1.06503e-05
7.34619e-06
1.05945e-05
1.06287e-05
1.04809e-05
1.06272e-05
1.06272e-05
1.06275e-05
1.06985e-05
1.06961e-05
1.06396e-05
1.05981e-05
1.06187e-05
1.06303e-05
1.06185e-05
1.06245e-05
1.05567e-05
1.06225e-05
1.06424e-05
7.58985e-06
1.03213e-05
1.06527e-05
1.05984e-05
1.06066e-05
6.16491e-06
5.01853e-06
1.06474e-05
1.06235e-05
1.05846e-05
1.0583e-05
1.06102e-05
7.29914e-06
1.06218e-05
1.06076e-05
7.39982e-06
1.05039e-05
1.06162e-05
1.06462e-05
1.05546e-05
1.06509e-05
1.06161e-05
3.60445e-06
3.62292e-06
1.09138e-05
1.06049e-05
1.06418e-05
1.0638e-05
7.37673e-06
1.06031e-05
1.06128e-05
1.06253e-05
1.06534e-05
1.07887e-05
1.0637e-05
1.06423e-05
3.38555e-06
7.3451e-06
1.14775e-06
1.06402e-05
1.06236e-05
2.2269e-06
1.06093e-05
7.50417e-06
1.06481e-05
6.13266e-06
1.06717e-05
1.06392e-05
1.03688e-05
1.06219e-05
7.62189e-06
7.42991e-06
6.94529e-06
1.06052e-05
1.0649e-05
1.06525e-05
1.06313e-05
1.06172e-05
1.06715e-05
7.6106e-06
1.06436e-05
1.06192e-05
1.06295e-05
1.05919e-05
1.06198e-05
3.78315e-06
1.06148e-05
1.0641e-05
1.06266e-05
1.06339e-05
1.06349e-05
6.94632e-06
1.08104e-05
1.08233e-05
1.05932e-05
1.05887e-05
1.06516e-05
1.06416e-05
1.06378e-05
6.26185e-06
1.04973e-05
1.05526e-05
1.06846e-05
1.06436e-05
1.06305e-05
1.06182e-05
1.02924e-05
1.058e-05
6.00285e-06
6.64003e-06
1.06346e-05
1.06474e-05
1.04698e-05
1.06154e-05
1.06181e-05
1.05818e-05
1.05875e-05
2.70177e-06
1.06347e-05
1.06427e-05
6.69676e-06
1.06225e-05
6.59509e-06
1.06221e-05
1.01253e-05
1.0619e-05
1.06349e-05
1.06425e-05
7.20903e-06
1.05728e-05
1.05992e-05
1.06219e-05
1.07156e-05
1.06525e-05
1.06236e-05
1.06549e-05
1.06358e-05
6.75976e-06
1.06479e-05
1.06313e-05
1.06319e-05
1.0588e-05
1.06214e-05
1.06187e-05
4.10434e-06
6.46884e-06
1.06149e-05
6.85886e-06
1.06444e-05
1.05817e-05
1.0642e-05
1.06325e-05
1.0633e-05
1.06027e-05
1.07041e-05
1.06387e-05
1.06351e-05
1.06389e-05
1.06621e-05
1.05738e-05
8.17595e-06
1.06551e-05
1.05886e-05
1.06362e-05
1.06579e-05
1.06362e-05
1.06334e-05
1.06465e-05
1.05704e-05
6.67347e-06
1.05785e-05
1.06389e-05
6.77594e-06
1.06291e-05
6.78072e-06
1.0655e-05
1.06394e-05
1.06205e-05
1.06317e-05
1.0608e-05
1.06471e-05
5.32419e-06
1.07026e-05
1.06522e-05
1.05958e-05
1.06172e-05
1.05765e-05
1.06357e-05
1.05464e-05
1.06394e-05
1.06186e-05
1.06429e-05
6.33925e-06
1.06388e-05
1.06355e-05
1.05412e-05
1.06495e-05
6.8491e-06
1.06495e-05
1.06085e-05
1.06399e-05
1.06091e-05
1.04969e-05
6.87903e-06
1.06423e-05
1.06513e-05
1.05119e-05
1.0634e-05
1.06361e-05
1.06411e-05
7.1187e-06
1.06349e-05
1.06171e-05
6.60619e-06
1.06035e-05
1.06407e-05
1.06274e-05
1.05834e-05
1.06026e-05
1.06215e-05
1.06617e-05
6.5754e-06
6.67627e-06
1.04699e-05
1.09266e-06
1.08166e-05
1.06336e-05
1.06176e-05
1.06632e-05
6.76906e-06
1.06127e-05
1.05751e-05
1.06355e-05
1.06203e-05
1.06304e-05
6.9493e-06
7.15101e-06
6.6052e-06
6.55437e-06
6.50773e-06
1.26278e-06
2.92611e-06
1.06403e-05
1.0642e-05
6.36365e-06
6.41555e-06
6.45102e-06
1.06418e-05
1.05879e-05
1.06515e-05
1.06181e-05
1.06347e-05
1.06393e-05
1.06398e-05
1.06462e-05
1.06306e-05
1.06379e-05
1.06327e-05
1.0639e-05
4.24871e-06
1.06349e-05
1.06427e-05
1.06376e-05
1.06401e-05
1.06375e-05
1.0635e-05
6.76311e-06
9.94282e-06
1.06408e-05
1.0773e-05
1.07806e-05
1.06605e-05
6.29372e-06
1.06161e-05
1.06394e-05
5.01461e-06
1.0599e-05
1.06491e-05
6.66055e-06
6.64644e-06
6.87723e-06
6.9722e-06
6.35087e-06
1.06061e-05
1.06268e-05
1.06477e-05
1.06524e-05
1.06394e-05
1.06363e-05
1.05903e-05
6.40995e-06
6.29544e-06
1.06448e-05
1.06509e-05
1.06324e-05
1.06413e-05
1.06488e-05
7.03408e-06
6.49386e-06
6.45506e-06
1.06392e-05
1.06349e-05
1.07657e-05
1.06401e-05
1.0715e-05
1.06168e-05
7.43698e-06
1.05755e-05
1.06472e-05
5.80095e-06
6.39189e-06
6.57227e-06
1.06252e-05
1.00365e-05
1.0632e-05
1.3786e-06
6.05667e-06
7.05749e-06
1.06528e-05
1.0587e-05
6.49767e-06
1.06229e-05
6.54205e-06
1.06319e-05
1.05503e-05
1.06404e-05
6.24045e-06
1.06184e-05
1.05515e-05
1.0645e-05
1.06541e-05
1.06485e-05
5.81664e-06
1.06408e-05
6.5794e-06
1.06423e-05
1.06136e-05
1.06655e-05
6.66076e-06
1.06386e-05
6.28709e-06
1.06234e-05
1.06324e-05
6.49838e-06
1.06283e-05
6.16557e-06
1.06554e-05
6.09015e-06
6.78165e-06
1.06151e-05
1.06431e-05
6.42141e-06
6.68953e-06
6.76652e-06
6.73491e-06
1.06419e-05
1.05859e-05
1.06355e-05
6.05808e-06
1.06187e-05
1.37374e-06
1.06517e-05
6.5646e-06
1.06119e-05
6.38589e-06
6.19857e-06
2.10425e-06
6.17689e-06
6.12627e-06
1.0626e-05
6.59957e-06
6.61929e-06
2.55376e-06
6.15812e-06
6.30706e-06
6.19438e-06
6.69772e-06
1.06273e-05
6.71122e-06
1.06468e-05
6.59542e-06
6.73977e-06
6.49392e-06
4.83415e-06
1.06559e-05
4.93169e-06
6.04577e-06
6.38639e-06
5.55245e-06
6.62352e-06
1.06435e-05
5.43677e-06
6.01267e-06
5.29599e-06
1.05927e-05
6.50075e-06
6.17053e-06
6.57833e-06
6.19773e-06
6.28293e-06
3.67885e-06
3.73636e-06
5.6591e-06
6.76494e-06
6.11941e-06
5.42808e-06
6.04729e-06
6.35275e-06
6.834e-06
5.89742e-06
5.65921e-06
5.41713e-06
5.18035e-06
6.3652e-06
6.08541e-06
6.28412e-06
1.06536e-05
6.23031e-06
6.41039e-06
5.93262e-06
6.19728e-06
6.43876e-06
5.70887e-06
5.85927e-06
6.5055e-06
6.58659e-06
6.28853e-06
6.00484e-06
5.77834e-06
5.9724e-06
5.46854e-06
5.53733e-06
1.06337e-05
6.05768e-06
2.82123e-06
5.9413e-06
5.92549e-06
5.80476e-06
5.35626e-06
5.08307e-06
1.06412e-05
5.6782e-06
4.13806e-06
5.62654e-06
5.85428e-06
5.89837e-06
6.02359e-06
4.90742e-06
5.74402e-06
6.02594e-06
5.75151e-06
6.17178e-06
6.13933e-06
6.15935e-06
6.833e-06
5.58635e-06
6.1817e-06
5.94498e-06
5.44888e-06
5.95503e-06
5.67816e-06
5.51333e-06
6.141e-06
5.88906e-06
5.6784e-06
5.69559e-06
5.83628e-06
5.54315e-06
5.8438e-06
5.82929e-06
5.24623e-06
6.05041e-06
5.40466e-06
5.47169e-06
6.67716e-06
5.15845e-06
5.54619e-06
5.34159e-06
5.91514e-06
5.64727e-06
5.7853e-06
5.56436e-06
1.06312e-05
5.74717e-06
5.58043e-06
5.55746e-06
5.45952e-06
5.41472e-06
5.53912e-06
5.30118e-06
5.91454e-06
5.92794e-06
5.5765e-06
5.3442e-06
5.56024e-06
1.06573e-05
5.46701e-06
6.55038e-06
5.4904e-06
5.35919e-06
5.20315e-06
5.10463e-06
5.637e-06
5.52718e-06
5.14634e-06
5.44235e-06
5.45075e-06
5.71784e-06
5.39041e-06
5.48943e-06
5.34011e-06
5.24386e-06
5.24706e-06
5.51909e-06
5.35536e-06
5.65774e-06
5.04785e-06
5.47155e-06
5.45397e-06
5.47921e-06
4.8975e-06
4.99134e-06
5.24284e-06
4.94408e-06
5.10269e-06
5.42582e-06
5.23505e-06
5.35379e-06
5.35122e-06
5.24277e-06
5.46338e-06
6.31435e-06
4.92473e-06
5.37025e-06
5.35194e-06
5.01792e-06
5.26641e-06
4.81207e-06
5.29392e-06
5.12667e-06
5.0003e-06
5.62161e-06
4.83723e-06
4.83498e-06
5.17437e-06
5.16669e-06
3.48743e-06
4.94231e-06
5.14228e-06
4.72876e-06
4.8659e-06
4.89125e-06
5.23964e-06
4.93537e-06
5.08148e-06
5.03033e-06
5.23926e-06
5.21078e-06
4.48687e-06
4.62198e-06
4.95671e-06
5.03227e-06
5.0965e-06
5.42759e-06
4.59525e-06
4.57801e-06
4.82847e-06
4.15795e-06
4.87274e-06
4.99262e-06
4.82157e-06
4.79391e-06
3.94398e-06
4.27531e-06
4.33795e-06
4.6405e-06
4.89092e-06
4.52257e-06
4.47162e-06
4.75899e-06
4.54257e-06
4.90407e-06
4.58302e-06
4.91433e-06
4.75234e-06
4.38724e-06
4.72415e-06
4.33798e-06
4.28266e-06
4.1908e-06
4.62794e-06
4.71616e-06
4.45989e-06
4.71319e-06
4.69571e-06
4.62411e-06
4.43043e-06
4.78035e-06
4.30057e-06
4.37765e-06
4.78024e-06
4.31042e-06
4.46208e-06
4.66362e-06
4.43117e-06
4.81035e-06
4.04886e-06
4.49649e-06
5.00616e-06
4.55167e-06
4.65844e-06
4.51344e-06
4.20069e-06
4.61222e-06
4.10278e-06
4.27071e-06
4.39763e-06
4.51047e-06
4.72971e-06
4.41572e-06
4.29696e-06
4.21063e-06
4.49382e-06
4.3466e-06
4.47411e-06
6.21094e-06
4.08972e-06
4.40506e-06
1.30285e-06
1.36036e-06
4.33444e-06
4.31389e-06
4.15679e-06
4.09242e-06
4.4361e-06
4.32512e-06
3.39531e-06
4.17901e-06
4.38549e-06
4.43009e-06
3.97799e-06
4.33572e-06
4.84395e-06
3.99495e-06
4.25294e-06
4.62027e-06
4.23195e-06
3.87749e-06
4.14329e-06
4.04803e-06
4.40138e-06
4.29442e-06
3.80891e-06
4.36975e-06
4.16944e-06
3.53529e-06
4.25955e-06
3.72456e-06
4.0592e-06
4.1151e-06
3.99308e-06
4.16625e-06
3.44415e-06
5.82045e-06
4.10224e-06
3.70657e-06
3.93346e-06
3.81445e-06
4.04439e-06
3.46541e-06
3.58856e-06
3.84287e-06
3.57901e-06
3.63512e-06
3.96453e-06
3.86179e-06
3.89018e-06
3.64192e-06
3.92798e-06
3.74198e-06
3.54168e-06
4.12088e-06
3.89604e-06
3.96408e-06
3.8229e-06
3.48086e-06
3.80035e-06
3.86446e-06
3.7852e-06
3.71679e-06
4.00807e-06
3.64342e-06
3.35787e-06
3.86131e-06
3.60847e-06
3.66636e-06
3.81074e-06
2.46624e-06
3.41718e-06
3.56533e-06
3.71569e-06
3.64735e-06
3.75738e-06
4.20777e-06
2.88717e-06
3.52943e-06
3.23288e-06
3.27012e-06
3.70845e-06
3.70694e-06
3.61281e-06
3.48778e-06
3.53668e-06
3.51163e-06
3.25304e-06
3.43278e-06
3.28341e-06
2.80986e-06
2.43903e-06
2.99676e-06
2.56054e-06
4.42133e-06
3.11296e-06
3.45881e-06
2.71693e-06
3.39682e-06
3.36679e-06
3.27397e-06
2.87761e-06
2.61145e-06
3.34093e-06
3.51321e-06
3.2867e-06
3.18234e-06
2.8369e-06
3.39447e-06
2.22395e-06
3.06666e-06
2.33872e-06
3.35951e-06
3.05934e-06
2.6878e-06
3.29733e-06
3.37493e-06
3.15842e-06
3.30339e-06
3.30868e-06
3.0531e-06
2.93878e-06
3.44958e-06
3.07269e-06
2.11149e-06
2.48558e-06
3.14033e-06
3.27445e-06
3.19291e-06
3.18932e-06
3.16764e-06
2.95178e-06
2.65693e-06
2.99226e-06
2.55306e-06
2.82932e-06
2.74859e-06
2.92412e-06
3.09729e-06
2.76723e-06
2.93064e-06
2.9845e-06
3.00693e-06
4.06411e-06
3.19657e-06
3.10657e-06
2.72928e-06
3.15221e-06
3.53502e-06
3.1016e-06
3.21118e-06
3.06531e-06
2.85091e-06
2.78693e-06
2.64155e-06
3.01515e-06
2.81741e-06
2.76357e-06
3.06165e-06
3.26787e-06
2.9137e-06
2.72623e-06
2.3638e-06
2.85976e-06
3.14191e-06
2.9673e-06
2.47149e-06
2.83328e-06
2.7446e-06
2.85458e-06
3.07096e-06
2.74364e-06
2.63443e-06
2.54914e-06
2.42052e-06
2.78896e-06
2.09042e-06
2.18357e-06
2.68901e-06
2.5638e-06
2.53981e-06
2.96364e-06
2.29502e-06
2.35239e-06
2.75294e-06
2.78967e-06
2.61967e-06
2.50128e-06
2.32484e-06
2.4689e-06
2.61018e-06
2.26127e-06
2.3399e-06
2.37087e-06
2.66479e-06
2.5196e-06
2.65119e-06
1.9692e-06
2.338e-06
2.39929e-06
2.2415e-06
2.15468e-06
3.63383e-06
2.5327e-06
2.41332e-06
2.40283e-06
2.56509e-06
2.65431e-06
2.1144e-06
2.6007e-06
2.39728e-06
2.42988e-06
2.04296e-06
2.06847e-06
2.2096e-06
2.30245e-06
2.43948e-06
2.39689e-06
2.20407e-06
2.52924e-06
1.99959e-06
2.5257e-06
1.926e-06
2.40605e-06
1.6507e-06
2.12767e-06
2.11385e-06
1.82694e-06
1.92109e-06
2.24836e-06
1.80358e-06
1.79759e-06
3.10276e-06
2.05984e-06
2.20751e-06
1.94684e-06
1.93912e-06
1.68327e-06
1.74283e-06
1.76625e-06
1.92333e-06
1.76076e-06
2.0251e-06
1.80927e-06
1.80047e-06
1.74789e-06
1.84947e-06
1.97207e-06
1.56874e-06
1.56977e-06
1.7435e-06
1.56129e-06
1.91698e-06
1.59701e-06
1.68995e-06
2.01398e-06
1.86491e-06
1.53558e-06
1.45586e-06
1.85092e-06
1.55529e-06
1.64593e-06
1.84297e-06
1.5118e-06
1.34368e-06
1.64328e-06
1.4515e-06
1.52649e-06
1.46192e-06
1.60655e-06
1.2329e-06
1.45144e-06
1.30209e-06
1.46497e-06
1.75284e-06
1.30919e-06
1.69221e-06
1.64669e-06
1.20531e-06
1.8086e-06
1.34031e-06
3.98887e-06
1.51436e-06
2.13916e-06
1.44986e-06
1.38e-06
1.38173e-06
4.73247e-06
3.68288e-06
3.43374e-06
2.4396e-06
1.62188e-06
1.99742e-06
1.05374e-06
1.29067e-06
1.24219e-06
2.20029e-06
1.10769e-06
1.54214e-06
5.88387e-06
2.56005e-06
3.12557e-06
2.28942e-06
1.56633e-06
3.50565e-06
3.83651e-06
3.5802e-06
2.5571e-06
1.9365e-06
5.16171e-06
1.87477e-06
4.61055e-06
1.38054e-06
1.18739e-06
1.42171e-06
5.33671e-06
1.43731e-06
6.74673e-06
2.92561e-06
3.02687e-06
3.2341e-06
3.15594e-06
5.26458e-06
3.32854e-06
2.42914e-06
2.40164e-06
3.26321e-06
3.40587e-06
3.40322e-06
1.14945e-06
4.46797e-06
4.43317e-06
2.19832e-06
5.60295e-06
3.42609e-06
5.96465e-07
2.68277e-06
1.30685e-06
3.79914e-06
6.83052e-06
7.16601e-06
2.15854e-06
1.62982e-06
1.51215e-06
4.87037e-06
1.66177e-06
4.85774e-06
1.43605e-06
5.29434e-06
5.51247e-06
2.05102e-06
7.24449e-06
1.29634e-06
1.35288e-06
3.70687e-06
5.66498e-06
4.25187e-06
4.66002e-06
4.94918e-06
5.77652e-06
2.56875e-06
7.81123e-06
1.36009e-06
3.87643e-06
1.50373e-06
6.6498e-06
6.94844e-06
1.32411e-06
7.02428e-07
6.89654e-06
5.51179e-06
5.67465e-06
5.90467e-06
6.93248e-06
8.05392e-07
8.81495e-07
4.76848e-06
5.2348e-06
7.00327e-06
5.62289e-06
1.41938e-06
4.01398e-06
7.09386e-06
5.15806e-06
1.40349e-06
5.01181e-06
7.38481e-06
5.88771e-06
7.58343e-06
3.13778e-06
2.00462e-06
1.88356e-06
1.35222e-06
6.71503e-06
6.49542e-06
5.73673e-06
1.11346e-06
1.20642e-06
1.78939e-06
6.87307e-06
1.19507e-06
1.41401e-06
1.4109e-06
1.94444e-06
2.35233e-06
1.4057e-06
1.29948e-06
2.39368e-06
1.40153e-06
1.54521e-06
1.95242e-06
1.71323e-06
2.25531e-06
1.55179e-06
1.95168e-06
2.28965e-06
1.71667e-06
2.02817e-06
1.87258e-06
2.46569e-06
2.29055e-06
1.89101e-06
1.91262e-06
1.88152e-06
2.02603e-06
2.84257e-06
1.98967e-06
2.99887e-06
1.84745e-06
1.97342e-06
2.04986e-06
1.83329e-06
3.06297e-06
1.99492e-06
2.68812e-06
2.14277e-06
2.15352e-06
2.96565e-06
2.18491e-06
3.20467e-06
3.62045e-06
2.81877e-06
2.25002e-06
3.52494e-06
3.22818e-06
3.27706e-06
3.29524e-06
3.07097e-06
2.96776e-06
3.15495e-06
2.31877e-06
3.17722e-06
2.95146e-06
3.11895e-06
2.26834e-06
3.16845e-06
3.99515e-06
3.26431e-06
3.36986e-06
3.42193e-06
3.10471e-06
4.05564e-06
3.17165e-06
3.34229e-06
3.45047e-06
3.75599e-06
3.35457e-06
3.21288e-06
3.84645e-06
4.33399e-06
3.75183e-06
4.03324e-06
3.98675e-06
4.70664e-06
3.86509e-06
4.09808e-06
3.22079e-06
4.6739e-06
3.95085e-06
4.21471e-06
4.34128e-06
3.91922e-06
4.25819e-06
4.54927e-06
4.9388e-06
4.36976e-06
4.47316e-06
4.57104e-06
5.23377e-06
4.63298e-06
4.48176e-06
4.8725e-06
5.25737e-06
4.91391e-06
4.53828e-06
4.47864e-06
4.42289e-06
5.10857e-06
5.0084e-06
4.57342e-06
4.51778e-06
4.60568e-06
4.99443e-06
4.68338e-06
5.07714e-06
4.62732e-06
5.19225e-06
4.73106e-06
5.37167e-06
5.17194e-06
5.07966e-06
5.83725e-06
5.28282e-06
5.34248e-06
5.34541e-06
5.7046e-06
5.34573e-06
4.73678e-06
6.04244e-06
5.2651e-06
1.06571e-05
5.5872e-06
6.32211e-06
5.62669e-06
6.17428e-06
6.24902e-06
1.06205e-05
5.8196e-06
6.37619e-06
6.47433e-06
1.26116e-06
5.84284e-06
6.05083e-06
1.06414e-05
6.52633e-06
6.42487e-06