/*--------------------------------*- C++ -*----------------------------------*\
  =========                 |
  \\      /  F ield         | OpenFOAM: The Open Source CFD Toolbox
   \\    /   O peration     | Website:  https://openfoam.org
    \\  /    A nd           | Version:  8
     \\/     M anipulation  |
\*---------------------------------------------------------------------------*/
FoamFile
{
    version     2.0;
    format      ascii;
    class       surfaceScalarField;
    location    "5.4";
    object      phi;
}
// * * * * * * * * * * * * * * * * * * * * * * * * * * * * * * * * * * * * * //

dimensions      [0 3 -1 0 0 0 0];

internalField   nonuniform List<scalar> 
15173
(
6.49471e-09
-5.75014e-09
-2.09846e-10
-5.34728e-10
5.07824e-09
-1.69056e-10
1.10568e-10
-5.01975e-09
-4.23898e-11
5.20767e-09
-5.16226e-09
-3.02008e-12
8.51666e-09
-2.22974e-10
4.57833e-10
-8.75152e-09
-5.93393e-09
6.20622e-09
-2.20088e-10
-5.22101e-11
6.76417e-10
-9.22847e-09
8.95759e-09
-4.05543e-10
-4.26738e-09
-8.01427e-10
1.14073e-09
3.92808e-09
5.20971e-09
-5.22262e-09
3.71189e-10
-3.58279e-10
-2.03699e-09
2.15657e-09
5.363e-11
-1.73212e-10
6.58964e-10
-3.38341e-10
4.66024e-09
-4.98086e-09
5.25777e-09
-5.2903e-09
6.82346e-11
-3.56985e-11
6.73813e-09
-2.67321e-11
-2.16692e-10
-2.54638e-09
2.42989e-09
-1.87325e-09
1.98974e-09
5.26605e-09
-5.21739e-09
2.84919e-10
-3.3358e-10
-4.88573e-09
5.10212e-09
1.00204e-10
-3.16593e-10
3.04556e-09
-3.32726e-09
2.817e-10
5.23645e-09
1.11812e-10
-9.04941e-11
-4.24859e-10
-7.57819e-11
-4.38509e-09
8.99332e-10
-8.06211e-10
-9.31206e-11
-2.87511e-09
-9.05435e-10
1.38309e-09
2.39746e-09
2.07628e-09
-4.64197e-11
-2.10298e-09
7.31212e-11
-3.2646e-09
2.89803e-09
3.14925e-09
-2.78268e-09
-5.28993e-09
4.44079e-11
-4.47824e-11
5.98184e-09
4.68767e-10
-6.24612e-09
-2.04485e-10
7.14949e-09
6.51403e-10
-6.89322e-10
-7.11157e-09
-1.5653e-10
5.08489e-11
-5.71698e-11
1.62851e-10
5.36737e-09
-7.36131e-09
2.41436e-09
-4.20424e-10
-2.00609e-09
3.53111e-09
-2.25577e-09
7.30746e-10
7.9778e-09
-6.07399e-09
5.24552e-10
-2.42836e-09
-2.8121e-10
7.30439e-10
8.06743e-09
-5.91437e-09
-5.04771e-09
7.67889e-09
3.28319e-09
5.9507e-09
4.98648e-10
-1.24818e-10
-6.32453e-09
7.64525e-09
2.62282e-09
-8.69418e-09
-1.57388e-09
8.44384e-10
-1.19647e-09
5.16745e-09
-4.81536e-09
4.93198e-09
1.50724e-10
-4.95704e-09
-1.25662e-10
5.14886e-09
1.36433e-09
-6.45396e-09
-5.92278e-11
4.98989e-09
-5.13054e-09
-9.98694e-11
2.40523e-10
-5.14526e-09
-6.85198e-09
3.17897e-09
8.81827e-09
-1.25569e-09
-8.6774e-09
8.29229e-09
1.6408e-09
-6.30425e-09
1.75344e-09
-3.15991e-10
4.8668e-09
5.18471e-09
-1.03366e-10
2.07759e-11
5.20047e-09
6.6089e-10
-5.07495e-10
-5.35386e-09
-6.65858e-09
6.62204e-09
-8.0828e-12
4.46162e-11
5.04163e-09
1.30994e-11
2.3506e-11
-1.84679e-09
1.79861e-10
-3.70056e-10
-3.56918e-09
1.74431e-10
-2.82986e-10
3.67773e-09
-1.08747e-10
8.48685e-11
2.72894e-09
1.44511e-10
-3.68611e-09
8.12649e-10
-5.42619e-09
-7.34772e-11
5.45728e-09
-1.19046e-10
3.02327e-10
-2.74318e-10
9.10357e-11
-1.71717e-09
-2.51613e-09
1.68693e-09
4.97725e-09
1.14219e-10
-4.98379e-11
5.98725e-09
2.89974e-10
-5.66522e-09
-6.12001e-10
6.8912e-10
-5.75287e-09
5.90719e-09
-8.4345e-10
-8.59001e-09
2.12165e-09
6.71372e-09
-2.45352e-10
8.1343e-10
-7.39823e-10
6.19543e-11
-1.35561e-10
-9.00748e-10
7.75675e-10
-2.91836e-09
3.04343e-09
5.41209e-10
-5.34422e-09
8.00091e-10
4.00292e-09
-6.59851e-09
6.73874e-09
-2.32986e-10
9.27524e-11
-1.69637e-09
-7.48823e-10
1.82383e-09
6.21369e-10
6.55611e-09
-6.60953e-09
-3.76591e-11
9.10741e-11
-7.06645e-09
6.22254e-09
3.52601e-09
-2.6821e-09
-1.9055e-09
3.61738e-09
-3.58423e-09
1.87236e-09
3.61373e-09
4.96376e-09
-1.58374e-09
-6.99375e-09
-7.60183e-09
2.23174e-10
2.97405e-10
7.08125e-09
2.96356e-11
6.9556e-09
-6.46931e-11
-6.92055e-09
6.5964e-09
-6.58676e-09
1.99911e-11
-1.0029e-10
-6.04792e-10
8.41481e-11
6.20934e-10
1.97054e-09
-5.93614e-10
-5.64431e-09
7.34688e-11
-4.88892e-11
6.53153e-09
2.70257e-09
-2.63973e-09
-2.33218e-09
2.26934e-09
5.25962e-09
-1.82654e-10
-5.23806e-09
1.61093e-10
-3.20719e-10
1.15329e-09
7.06167e-09
-7.89424e-09
-1.68323e-09
8.89949e-10
-9.03092e-10
2.68204e-09
2.02097e-09
-2.00044e-09
-4.58358e-09
4.53309e-09
5.04853e-11
-1.64714e-12
-1.66548e-11
-6.64028e-09
-5.37614e-11
6.62779e-11
-1.3434e-10
-5.30737e-09
6.17685e-10
4.82403e-09
-2.28793e-09
4.42052e-09
7.2241e-09
-3.40435e-09
-3.43809e-09
4.35849e-09
2.48395e-09
-7.16283e-09
7.42738e-09
-3.86178e-10
1.21627e-10
-1.03665e-09
8.72969e-10
-5.0537e-09
-3.58896e-09
4.46066e-09
3.52636e-09
-4.39806e-09
4.99611e-09
-4.64676e-09
-3.49345e-10
4.89407e-09
-1.04272e-10
-3.55013e-09
-1.23966e-09
2.07356e-09
3.87761e-09
-3.87417e-09
-2.077e-09
-6.49963e-09
6.53583e-09
-4.45136e-11
8.30998e-12
-5.21757e-09
2.87079e-09
-2.58126e-09
4.92804e-09
1.83646e-09
-3.38274e-09
-5.69905e-10
2.11619e-09
1.71467e-09
3.14273e-11
3.30187e-10
-5.06022e-09
5.07388e-09
1.90186e-11
-3.26771e-11
7.27687e-11
4.91957e-10
-9.06484e-11
-4.74077e-10
-6.30872e-09
-5.35858e-09
5.75293e-09
1.3403e-09
4.40076e-09
-4.12573e-09
-1.61533e-09
-4.83199e-09
2.35075e-09
-4.57022e-09
7.05146e-09
-1.91605e-10
6.39188e-10
-4.98074e-10
5.04909e-11
3.40056e-09
-4.85434e-09
-3.09033e-09
4.54411e-09
-3.20125e-09
3.3057e-09
2.40181e-09
-2.50626e-09
2.40229e-11
-4.6076e-09
6.00625e-09
1.63452e-09
-1.83062e-09
-5.81015e-09
6.26725e-09
-3.08956e-09
-4.02635e-09
8.4866e-10
4.77289e-09
1.61697e-09
-2.10296e-09
-4.28689e-09
7.8922e-09
9.84364e-10
-7.24134e-09
-1.63523e-09
3.08745e-09
2.58625e-10
-6.42918e-10
-2.70316e-09
8.06876e-09
-8.38948e-09
-4.26287e-10
7.11233e-11
4.27932e-10
-2.62068e-09
-2.51651e-09
2.49746e-09
5.28057e-09
-4.55279e-09
-4.6361e-09
3.90831e-09
-4.79454e-09
4.6997e-09
1.90754e-10
-9.59074e-11
5.56276e-09
-5.28829e-09
4.77475e-09
-5.04921e-09
-1.94272e-09
1.77159e-09
4.71829e-09
-4.54716e-09
-7.31792e-09
-2.69124e-09
2.94271e-09
5.10156e-09
-1.0264e-10
3.27076e-12
-5.00219e-09
2.84698e-09
-4.05412e-10
1.29552e-09
-3.73708e-09
6.34061e-09
-3.05261e-10
2.57005e-10
-6.29235e-09
-5.67032e-09
-2.68164e-09
3.1344e-09
-6.76484e-09
4.83732e-11
6.75119e-09
-3.4726e-11
-1.32529e-10
9.71363e-10
2.24861e-09
-4.9891e-09
5.01365e-09
3.23646e-11
-5.69145e-11
-7.04323e-10
-5.2784e-09
4.87969e-11
-6.38578e-09
-5.91152e-10
7.71208e-10
6.20572e-09
2.05463e-10
5.34704e-09
-4.23136e-10
-5.12936e-09
2.86848e-10
5.96249e-09
-6.11024e-09
-1.39099e-10
3.90507e-09
-3.43894e-09
-1.67568e-09
1.20955e-09
-3.14015e-09
-2.38046e-11
2.26321e-09
-5.32192e-09
-3.46023e-10
4.80253e-09
8.65414e-10
-6.56526e-10
7.34743e-10
-4.0851e-09
4.00689e-09
-1.7455e-09
8.34177e-10
-4.18447e-09
5.09579e-09
1.06814e-09
-8.94888e-09
8.55716e-09
-5.04272e-09
3.4918e-11
-5.24186e-11
3.23167e-09
-2.51037e-09
1.78726e-09
-2.50856e-09
1.65636e-09
-1.09675e-09
-3.59507e-09
3.03546e-09
-6.0309e-09
-8.24846e-10
6.15142e-09
-4.96025e-09
-1.72353e-10
4.81781e-11
5.08442e-09
4.85074e-09
2.54369e-10
-1.15217e-10
9.41564e-09
8.3761e-10
-9.04612e-09
-1.20713e-09
-2.17424e-09
-3.84248e-09
4.18248e-09
1.83424e-09
1.07887e-10
-5.37224e-11
-6.50815e-09
7.16908e-12
1.35281e-12
3.09324e-09
2.9015e-09
-2.08967e-09
-6.49314e-10
6.93818e-10
-4.7902e-09
4.74569e-09
-4.71151e-09
3.71231e-09
-3.93811e-10
1.39301e-09
1.0951e-08
-6.4189e-09
-7.29718e-09
2.76505e-09
-6.82397e-11
5.27809e-10
3.2388e-11
7.36649e-09
-2.33307e-09
1.77018e-09
-6.8036e-09
1.20239e-09
5.16311e-09
-1.16504e-09
-4.8058e-09
-2.49355e-10
9.49029e-11
5.8148e-09
-5.45306e-09
2.19537e-09
-2.55712e-09
-4.32709e-09
-7.97732e-10
4.4683e-09
5.79669e-09
-6.90041e-09
-1.42847e-10
1.24657e-09
-3.32026e-09
-3.11563e-09
2.72291e-09
3.71298e-09
4.94793e-09
-2.70864e-09
-3.38541e-09
1.14612e-09
-4.91548e-09
4.93786e-09
3.05999e-11
-5.29777e-11
6.56302e-09
-1.06213e-11
-4.17596e-12
-6.54822e-09
-4.8001e-09
4.80107e-09
-2.1157e-11
2.01895e-11
9.83911e-10
-1.77486e-09
-2.22324e-09
3.01419e-09
-5.42444e-10
2.51316e-09
1.26096e-09
-5.22102e-09
5.22397e-09
-1.24298e-11
9.47365e-12
-5.38085e-09
5.55468e-09
-2.30363e-10
5.65343e-11
-1.11092e-09
3.75499e-09
-5.6801e-10
-2.07605e-09
-4.84521e-09
4.83306e-09
-3.15702e-11
4.37168e-11
2.09547e-09
7.02726e-09
-7.38256e-09
-1.74017e-09
-4.90419e-09
4.88265e-09
-3.69628e-11
5.85009e-11
-5.21462e-09
5.1854e-09
-2.94551e-11
5.86708e-11
5.17717e-09
2.53333e-10
-2.20786e-10
4.05833e-09
-4.10543e-09
-3.54186e-09
9.71064e-10
-1.58102e-09
-1.01547e-08
5.10104e-10
-5.43245e-09
-3.82646e-10
5.30499e-09
-4.95841e-09
4.94497e-09
-3.25921e-11
4.603e-11
-5.15525e-09
5.13817e-09
1.62138e-10
-1.45053e-10
-5.13621e-09
5.11083e-09
-3.08316e-11
5.62087e-11
-4.99169e-09
4.98357e-09
-2.72641e-11
3.53804e-11
2.84954e-09
-3.9978e-09
2.109e-09
-9.60731e-10
-5.05761e-09
5.03906e-09
-3.37883e-11
5.23421e-11
-1.20356e-09
2.7955e-09
-2.70286e-09
-2.30324e-10
-4.98363e-09
5.21396e-09
-2.16085e-09
6.86794e-10
-6.24826e-10
2.09889e-09
-1.82154e-11
4.54171e-09
-4.5235e-09
-1.78982e-11
-5.57474e-11
6.81178e-09
-1.75997e-10
5.17211e-09
3.18858e-09
2.74397e-09
-2.87495e-09
-3.0576e-09
-1.84615e-09
9.24826e-10
-9.95963e-10
1.91729e-09
-1.15458e-11
-1.80038e-12
-4.76444e-09
5.82712e-11
-1.44288e-10
4.85046e-09
3.11195e-09
-2.68811e-09
1.63858e-09
-2.06241e-09
-4.09716e-10
7.54494e-11
-9.20198e-11
-5.53604e-09
4.20298e-09
-6.09664e-10
4.22297e-09
-4.20386e-09
-1.91112e-11
-3.68598e-09
3.77158e-09
1.75086e-09
5.23211e-09
5.70935e-11
-2.95766e-11
-2.18294e-10
-3.23254e-09
3.45083e-09
8.36464e-09
-5.47029e-09
-3.38486e-09
4.90513e-10
1.87695e-09
2.13962e-10
-3.29448e-09
-3.47165e-11
1.96749e-10
5.04376e-09
-5.20579e-09
-1.01817e-09
1.09112e-09
9.86593e-10
-1.05954e-09
-3.39483e-11
2.55836e-10
-2.22566e-11
-1.99631e-10
-1.15348e-09
-3.33029e-09
1.60865e-09
-6.50226e-09
7.0288e-13
-6.59243e-12
-4.66536e-09
-3.18806e-10
1.78371e-10
4.89377e-09
-8.4438e-11
1.67921e-10
3.17413e-11
-9.44139e-11
6.30874e-11
-2.84164e-11
5.03921e-09
-2.0659e-10
1.94221e-10
-6.28622e-09
6.29859e-09
-8.83452e-11
-5.33558e-09
5.42393e-09
-8.88105e-10
8.71122e-10
-1.00119e-09
7.05143e-09
-4.72055e-10
1.59367e-10
6.21619e-10
-1.14718e-10
-1.8958e-09
1.3889e-09
7.70321e-11
1.68486e-10
-6.53847e-11
-1.80134e-10
-4.95689e-09
2.5037e-11
-5.72425e-11
2.61738e-09
-2.38349e-09
-5.8423e-09
5.6084e-09
1.92528e-10
-9.33048e-11
2.57219e-09
-2.09058e-09
-4.81614e-10
-1.51163e-09
9.51422e-10
7.7097e-09
-6.49196e-09
-5.1655e-11
6.5254e-09
-4.47554e-10
2.55246e-10
-4.47305e-09
-1.30817e-09
1.79644e-09
-5.19977e-09
-6.12931e-09
6.06448e-09
-1.41761e-10
1.59055e-11
1.55821e-11
-3.14876e-11
-6.41595e-09
7.25015e-10
6.38005e-09
-5.03592e-09
1.41433e-09
2.85681e-09
7.64782e-10
5.06969e-09
5.3938e-10
-4.10482e-09
-1.50424e-09
5.35022e-09
4.05659e-09
-5.22693e-09
3.72314e-11
-2.49197e-11
3.37336e-09
5.69974e-09
-5.49162e-09
-3.58148e-09
-6.11117e-09
-5.62554e-09
5.42799e-09
-7.47741e-09
1.65757e-09
-1.52495e-09
7.34479e-09
1.095e-11
6.60947e-09
1.42634e-11
-1.72194e-11
3.51753e-09
5.26839e-09
-2.56337e-09
3.89349e-09
-9.32232e-11
-4.20998e-09
4.09718e-10
6.87123e-11
-1.26542e-10
-3.51887e-10
-1.98771e-10
2.44467e-11
-4.94972e-11
2.23821e-10
1.4052e-10
-5.46039e-09
5.45925e-09
-1.39375e-10
3.242e-09
-2.95587e-09
3.25003e-09
-3.53616e-09
-6.47482e-09
-6.25741e-11
4.54283e-11
-5.15245e-09
-6.92078e-10
5.35522e-09
4.89313e-10
1.62216e-09
-4.52353e-09
-1.78545e-09
4.68682e-09
-1.08619e-11
8.11173e-12
6.56577e-09
8.1796e-09
-6.90813e-09
-7.01678e-10
-5.69792e-10
6.23293e-09
-6.15081e-09
1.12099e-10
4.62678e-09
-4.75534e-09
-5.87133e-11
1.87278e-10
2.33032e-10
6.45193e-09
-4.52029e-10
-4.51524e-09
-7.65595e-11
8.12312e-11
4.51056e-09
-4.38765e-09
1.99175e-09
3.83107e-09
-1.43516e-09
4.56098e-09
-1.92624e-11
-9.43131e-09
-2.26724e-10
8.79282e-09
8.65216e-10
-5.90115e-09
-4.44054e-09
5.19643e-09
-4.53514e-09
3.52846e-11
4.49643e-09
3.42367e-12
-2.3666e-10
5.2051e-09
-5.0854e-09
1.16962e-10
1.53795e-09
6.99816e-09
-8.48537e-09
-5.07374e-11
1.74428e-10
-1.51038e-10
2.17267e-11
-4.51166e-11
-2.95225e-11
4.2525e-09
6.43331e-09
-6.42083e-09
-5.43406e-11
4.18548e-11
-4.01757e-09
-3.13635e-11
4.04893e-09
6.23598e-09
-5.17911e-10
3.59795e-10
-6.07786e-09
4.18837e-09
-2.44426e-09
-3.91836e-09
3.13103e-11
-7.28134e-11
1.17601e-08
6.41567e-10
-4.50948e-09
4.69945e-09
-3.36324e-09
1.55763e-09
-2.89384e-09
5.91549e-09
1.2052e-09
-1.45695e-09
-5.66374e-09
-3.32954e-09
2.9868e-09
1.39587e-09
-1.05313e-09
-1.71863e-10
-6.46111e-09
9.01482e-11
6.54282e-09
-6.33862e-09
6.35619e-09
-5.3497e-11
3.59199e-11
6.29141e-09
-2.75403e-11
9.90803e-11
-6.36295e-09
-6.45939e-09
9.28597e-11
6.81255e-09
-4.46026e-10
8.10933e-10
-8.98674e-10
-8.00363e-10
-5.1633e-09
5.5853e-11
-2.8758e-11
-4.73595e-11
2.30171e-11
-4.47549e-09
1.21054e-09
4.88711e-09
-3.18127e-09
-2.74712e-09
3.73338e-09
2.195e-09
-2.11854e-10
2.35898e-10
-2.40441e-11
2.6774e-09
-2.57412e-09
-2.72397e-09
-1.64057e-09
-5.39679e-09
7.46208e-10
6.29115e-09
-6.27443e-09
6.29183e-09
-3.66654e-11
1.9267e-11
2.92336e-09
-5.08094e-09
4.23114e-09
4.45717e-11
-6.27857e-09
6.26077e-09
-2.67751e-11
-5.42985e-09
1.31394e-10
5.43898e-09
-1.92835e-09
-3.54446e-09
1.49791e-09
3.9749e-09
3.58659e-09
-3.62131e-09
6.4316e-09
-6.42753e-09
-2.22248e-11
1.81487e-11
-6.39369e-09
-6.15269e-11
3.43874e-11
-6.18832e-11
3.28084e-11
1.44913e-09
-4.24527e-09
-2.23978e-09
-1.97979e-09
4.23326e-09
-1.27988e-09
1.27959e-09
1.09141e-09
-1.74183e-09
1.98269e-09
-3.16988e-09
2.92902e-09
1.44148e-11
-2.2699e-10
-5.42264e-09
5.63522e-09
-6.42237e-09
1.85662e-10
-1.6878e-10
6.40548e-09
-4.88321e-09
2.93144e-11
-6.15941e-11
-1.28794e-10
2.06168e-11
-4.28614e-11
-5.22928e-09
5.3942e-09
2.45143e-09
-2.61635e-09
-2.58447e-09
-8.35802e-09
5.4722e-09
5.5061e-09
5.47405e-10
-2.56815e-10
4.18469e-09
-3.2902e-09
-1.49052e-09
5.96028e-10
4.8042e-10
5.89559e-09
-2.85283e-09
-3.52318e-09
-4.3858e-09
-4.69001e-11
3.28836e-11
4.39982e-09
-7.86206e-09
4.63276e-09
-3.863e-09
7.09229e-09
2.34809e-09
-2.47143e-09
-4.76738e-09
4.89072e-09
6.1832e-09
-1.87001e-11
-6.17812e-09
1.36293e-11
-2.28748e-09
1.95233e-09
2.6407e-10
3.72746e-09
-7.38267e-12
-3.98415e-09
1.0854e-10
4.50925e-09
8.98476e-12
-6.50107e-12
-6.03491e-09
6.02941e-09
1.20081e-11
2.27611e-09
-3.34975e-09
1.642e-09
-5.68353e-10
1.82045e-10
-3.977e-09
4.24036e-09
-4.45403e-10
1.97106e-11
-4.14303e-11
-1.07074e-10
4.9708e-09
5.6452e-10
-1.00807e-09
-4.52725e-09
3.04838e-09
-2.65487e-09
-3.17634e-09
2.78284e-09
-4.92958e-09
4.23365e-10
4.15191e-09
3.54302e-10
2.76004e-09
-1.46286e-09
1.0954e-09
-2.39259e-09
-4.54341e-09
5.10606e-09
2.52175e-09
-6.40753e-09
-1.78454e-09
-1.51121e-09
2.28027e-09
2.92984e-09
-3.6989e-09
-2.29415e-09
-7.67657e-10
9.00956e-10
2.46791e-09
-2.83027e-09
-2.31743e-09
2.67978e-09
5.49933e-11
-3.28967e-11
3.56143e-09
-3.35597e-09
-2.26458e-09
-4.78227e-09
3.04688e-09
3.99997e-09
4.09594e-09
-4.07299e-09
-2.29486e-11
6.26347e-10
2.29265e-09
-1.76603e-09
-1.15297e-09
-2.03893e-09
6.12076e-10
2.0532e-09
-5.08525e-09
5.68773e-11
-2.92463e-11
-6.31344e-09
-5.56419e-11
3.04671e-11
2.94286e-09
2.96622e-10
-2.46381e-09
4.08096e-09
7.15019e-10
-3.97816e-09
-8.17817e-10
-3.86109e-10
7.45317e-10
-3.59208e-10
-1.42922e-09
-2.76001e-09
2.57107e-09
1.61816e-09
-5.26154e-09
4.64469e-09
6.03555e-10
1.32938e-11
2.03917e-10
1.5822e-09
-1.83156e-11
-1.7678e-09
-7.53497e-11
-3.60824e-09
3.68359e-09
2.84648e-11
-6.59611e-11
6.23779e-09
8.40506e-10
-2.11998e-10
-6.8663e-09
5.60428e-09
-6.62594e-09
4.2768e-09
-3.25513e-09
-1.33245e-09
4.99712e-09
-5.30524e-09
-1.38125e-09
-3.99658e-09
1.69185e-09
5.59438e-09
-5.36414e-10
-5.12285e-09
6.4876e-11
4.21734e-09
7.89177e-11
-4.36501e-12
-4.29189e-09
-1.25506e-09
1.23944e-09
-6.21283e-09
6.22845e-09
-1.40951e-09
-3.53637e-09
1.61634e-09
-3.30476e-09
1.493e-09
3.09872e-09
-1.28696e-09
-4.04616e-11
-6.03432e-09
6.06014e-09
1.4637e-11
-4.05004e-10
1.45476e-09
-2.25316e-09
1.20341e-09
2.4706e-10
5.23406e-09
-4.82469e-09
-6.5643e-10
-3.64677e-09
1.92224e-09
-2.11795e-09
3.19926e-09
6.30525e-09
-3.36297e-09
-6.14154e-09
2.17461e-09
4.71296e-09
-2.02797e-09
-4.8596e-09
-4.01563e-09
6.13254e-09
1.5981e-09
-3.71501e-09
-2.21129e-09
2.33098e-09
2.92869e-09
7.34413e-09
-1.38996e-09
-7.02227e-09
1.0681e-09
-7.09045e-09
7.27443e-09
-1.94656e-09
1.76258e-09
6.25071e-09
-6.22482e-09
-3.2395e-11
-1.89977e-09
1.6812e-09
4.2249e-10
-2.61963e-09
2.51113e-09
-1.60867e-09
1.6686e-10
3.98841e-09
-4.15527e-09
-1.95153e-10
2.15263e-10
-8.7126e-10
8.5115e-10
5.14338e-09
-4.08828e-09
-1.85652e-09
1.4385e-09
4.04731e-09
-5.30376e-09
-5.70601e-09
5.46871e-09
1.14504e-09
-9.07732e-10
-4.88127e-11
2.97824e-11
1.21341e-10
-1.45379e-09
-6.25804e-09
-3.21742e-11
1.57822e-11
2.15648e-09
-9.28949e-09
-3.44395e-10
1.66883e-09
-7.21332e-10
-9.47497e-10
-2.19309e-09
6.82597e-09
3.91126e-10
-5.02401e-09
2.74567e-09
3.75168e-09
-4.06702e-09
4.12769e-09
-6.06669e-11
-1.56176e-09
-8.28585e-09
7.12682e-09
2.72079e-09
2.4564e-09
-2.63645e-09
3.19065e-09
-3.0106e-09
-4.15901e-09
1.31557e-11
4.14586e-09
7.20068e-10
4.27705e-09
1.55538e-09
6.02933e-10
-2.15832e-09
-7.73593e-11
6.0354e-09
-8.56481e-10
-8.24509e-10
-7.7196e-09
7.22342e-09
1.32069e-09
4.47978e-11
-5.43556e-09
-2.98941e-11
5.42066e-09
2.10317e-09
-1.25418e-09
-8.48995e-10
-5.01e-09
4.03616e-11
-2.20449e-11
4.66811e-09
-4.64654e-09
1.23828e-11
-3.39502e-11
-2.13989e-10
-5.63053e-09
4.44771e-10
5.39975e-09
8.34992e-09
-1.28116e-09
-5.13926e-09
5.22132e-09
-1.36159e-10
5.40926e-11
-3.14793e-09
-1.58963e-09
3.83212e-09
-3.0873e-09
-1.05738e-10
3.19304e-09
2.26096e-09
-3.12851e-09
4.12873e-09
-3.26118e-09
7.86697e-09
1.68826e-10
2.30437e-09
4.05289e-09
-3.37722e-09
-2.98004e-09
5.16819e-09
-5.29143e-09
-9.07468e-11
3.99567e-10
-1.05338e-09
1.46533e-09
-8.11517e-10
-2.18068e-09
-1.52168e-09
8.23622e-10
2.87874e-09
5.49511e-09
-4.8437e-09
3.34111e-11
-1.29743e-10
4.91046e-10
-2.43889e-09
-7.12039e-10
2.65988e-09
1.66491e-10
2.44057e-09
-1.62315e-09
3.79054e-11
-9.43281e-11
1.89967e-10
-1.33544e-10
-3.28841e-09
3.67055e-09
-4.00273e-09
3.62059e-09
6.02195e-09
-1.7239e-11
-1.054e-12
-6.00366e-09
-8.35426e-11
1.02336e-10
-1.87939e-11
-2.18476e-09
7.77203e-09
-8.07694e-09
2.48966e-09
-2.28215e-09
2.4001e-09
4.54453e-09
-4.66248e-09
5.17314e-11
5.42353e-09
-5.43046e-09
3.01093e-10
5.34412e-09
-1.3911e-10
-2.4897e-10
-2.07659e-09
1.92056e-09
-1.43959e-11
4.81184e-12
2.05003e-10
-1.95419e-10
-3.6027e-10
-7.70285e-09
3.25636e-12
-4.07028e-09
-8.95322e-12
6.04038e-09
4.71521e-11
-6.07858e-09
6.2342e-09
-3.18647e-11
1.77027e-11
-6.22004e-09
4.22423e-11
-6.45625e-09
6.47784e-09
-6.38312e-11
-2.04061e-09
6.2655e-10
-6.24876e-10
-3.08007e-09
1.62128e-09
-3.80275e-09
-2.23403e-09
8.30501e-09
-8.68499e-09
2.61402e-09
-6.06054e-09
6.88227e-12
6.09823e-09
-1.54719e-09
2.13744e-10
2.50936e-09
-4.16627e-09
6.46265e-11
1.59229e-09
6.12948e-09
-1.95445e-09
-3.7996e-09
-3.75433e-10
-1.1634e-09
-3.61434e-09
1.3388e-09
-4.94556e-11
1.68977e-11
6.71094e-11
-3.45515e-11
1.92277e-11
6.55122e-09
-6.52821e-09
2.69305e-11
-4.85389e-11
5.38774e-11
-2.82899e-11
1.84958e-10
-5.03288e-09
1.12619e-09
3.72173e-09
9.57453e-10
-2.06605e-09
-3.82098e-09
-2.38302e-12
2.70075e-12
-2.08028e-10
2.07711e-10
-1.65194e-09
-6.11507e-09
2.061e-09
-1.69178e-09
-4.3675e-10
-2.14193e-09
-1.02388e-09
-4.10248e-10
2.35356e-09
1.04349e-09
-6.4164e-09
6.50563e-09
5.32078e-10
-6.213e-10
-3.30396e-09
8.32184e-10
4.40959e-09
-1.93782e-09
-2.97806e-09
-6.7138e-10
4.18781e-09
-5.38374e-10
-1.36107e-10
7.96831e-11
8.69853e-10
1.21526e-10
-8.81434e-10
4.42566e-11
7.15651e-10
-6.2536e-09
6.26933e-09
-5.61964e-11
3.4418e-10
-3.06947e-10
3.06568e-11
-6.78896e-11
-3.89495e-09
-6.60438e-09
1.49855e-09
9.00079e-09
-3.60865e-09
-5.67952e-09
5.98814e-09
3.30003e-09
2.89483e-09
2.15238e-10
-2.61902e-09
4.50376e-09
-2.90551e-09
1.42116e-09
-3.01941e-09
-5.93676e-09
2.20812e-11
-6.02759e-11
5.97495e-09
6.46866e-10
-7.10245e-10
1.84905e-10
-5.11242e-09
1.46175e-09
-1.90177e-10
3.84084e-09
1.22052e-09
-2.90552e-09
-7.54471e-10
2.43947e-09
-4.55893e-09
-6.11039e-09
6.65369e-09
-1.53798e-09
3.61183e-10
3.07249e-09
-1.89569e-09
1.19091e-10
-6.40423e-09
6.2884e-09
2.60103e-09
7.09268e-09
-7.92855e-09
-1.76515e-09
3.48226e-09
-5.74266e-10
3.48615e-11
-6.59926e-10
2.31706e-09
4.32471e-09
2.60392e-09
-1.19181e-09
4.54215e-09
-5.95426e-09
-6.47406e-09
6.40598e-09
1.14006e-10
-4.59256e-11
-5.38983e-09
5.39825e-09
1.70246e-11
-2.54432e-11
-1.72766e-10
1.94681e-10
2.9335e-10
-7.53381e-09
-8.31528e-09
3.05424e-09
1.01756e-09
-2.54319e-09
-1.77833e-09
5.25566e-09
-1.86694e-10
9.71426e-11
-5.16611e-09
3.78933e-09
-4.06622e-09
5.67111e-09
-5.39422e-09
-3.04275e-09
2.35464e-09
-2.11446e-09
2.80257e-09
5.54094e-09
2.38086e-09
-4.48087e-09
-3.44093e-09
-1.95973e-10
8.56397e-10
-8.55577e-10
-3.46416e-09
-3.6153e-09
3.51723e-09
3.56224e-09
5.84642e-10
2.85772e-09
-1.2133e-09
5.69972e-09
5.44296e-09
5.37448e-09
-5.45008e-09
-3.76607e-09
-3.32396e-09
3.62587e-09
1.31445e-08
-4.45187e-09
-5.49342e-09
2.60711e-09
-2.97379e-09
-3.5149e-09
3.88158e-09
-3.68828e-09
4.2849e-09
-2.65329e-09
2.05667e-09
-5.5411e-11
1.40322e-10
3.52471e-11
-1.20158e-10
-4.23443e-09
3.65596e-09
-3.55441e-09
4.13289e-09
-3.41915e-09
3.5111e-09
-9.19528e-11
-5.40136e-09
5.42956e-09
7.00251e-13
-2.88985e-11
1.35707e-09
4.53152e-10
-6.41325e-10
-1.1689e-09
9.78005e-11
-6.76966e-10
-1.60658e-10
3.78598e-09
-1.08381e-09
8.90326e-10
-3.5925e-09
-5.65597e-09
-8.92981e-11
5.51467e-09
2.306e-10
-1.4682e-09
2.30789e-09
5.28979e-09
3.7391e-10
-3.2825e-10
6.81094e-10
-7.26753e-10
3.40274e-10
-3.10602e-11
3.58427e-09
-6.5123e-11
-4.86245e-09
4.43688e-11
3.91997e-10
7.37068e-09
-5.6062e-09
1.59072e-09
4.02792e-09
-3.68755e-09
-1.93109e-09
-1.22887e-11
-1.4648e-09
-3.7522e-09
1.687e-09
-2.08192e-09
-7.6027e-10
1.15519e-09
-4.09737e-09
3.74929e-09
-3.88635e-09
-4.12314e-09
4.36367e-09
3.95423e-09
-4.19476e-09
-1.76173e-11
-4.12732e-09
4.14494e-09
5.89967e-09
-2.31318e-09
2.97274e-09
-5.33463e-09
-9.43421e-10
3.30531e-09
4.74554e-09
1.91141e-11
-3.62335e-11
-4.72842e-09
-6.69773e-11
4.83476e-09
-4.8067e-09
3.89187e-11
-1.04853e-09
1.38423e-09
5.6747e-09
-6.0104e-09
2.50699e-10
8.84684e-10
-9.2012e-10
4.61587e-10
2.64208e-09
-1.01046e-09
1.37255e-09
-3.00417e-09
-1.47157e-09
6.89515e-09
-6.932e-09
1.50842e-09
3.2589e-10
-8.91034e-09
-1.35112e-09
-4.47029e-09
2.10778e-09
2.80391e-09
-2.58441e-09
2.42667e-09
-2.64617e-09
-7.2405e-12
1.26113e-11
-1.56318e-10
1.50947e-10
2.09675e-10
-1.14276e-10
1.54842e-09
4.08452e-10
-5.99801e-10
5.39606e-09
-5.41005e-09
-2.67468e-11
4.07289e-11
5.15185e-09
-4.97867e-09
1.92999e-09
5.15841e-09
-7.2398e-11
1.46096e-10
-5.44055e-09
-4.18577e-11
4.68481e-11
-2.46006e-11
3.08316e-11
2.3943e-09
5.08816e-11
-4.29588e-11
-2.40222e-09
4.28009e-09
-2.20924e-09
-2.07085e-09
3.56796e-09
-3.00344e-09
1.99222e-09
-2.04447e-09
7.39038e-10
-6.99036e-09
-1.3592e-09
7.42677e-09
9.22784e-10
-3.94232e-11
-5.92797e-09
3.06325e-11
4.12838e-09
-3.24369e-11
-5.13125e-09
-1.19606e-09
2.01111e-09
4.3162e-09
-4.16796e-09
6.39301e-12
4.13539e-10
4.22476e-09
-6.37644e-09
2.77495e-09
3.60149e-09
6.22852e-11
3.25706e-09
-1.85507e-09
-1.46428e-09
6.29901e-09
5.74475e-09
-8.51775e-09
2.21205e-09
4.84826e-09
-1.77974e-09
-4.31197e-09
-8.22182e-10
4.48484e-09
-7.33952e-09
6.18623e-09
1.23502e-11
-3.61927e-11
-1.47757e-09
-3.64006e-09
3.69433e-09
1.4233e-09
3.95192e-09
-5.37066e-09
-3.13933e-11
5.94157e-09
5.69019e-11
-5.96708e-09
1.84931e-09
-3.27351e-09
-1.61855e-09
-4.18496e-09
3.73124e-09
2.47554e-09
-2.02182e-09
-4.81555e-09
4.92253e-09
-1.81686e-09
1.70988e-09
1.34909e-10
-7.66566e-11
-1.14944e-10
5.66918e-11
9.7043e-10
-7.92493e-10
-4.64428e-09
1.47547e-10
-3.84057e-11
-1.19886e-09
3.99137e-10
1.25287e-09
-4.02691e-09
2.83958e-09
4.1107e-09
4.21183e-10
8.54195e-10
-1.66149e-09
-2.04387e-09
2.37558e-09
-3.3171e-10
-6.71791e-10
1.1943e-11
-2.21586e-10
5.86512e-09
4.77359e-11
-5.89108e-09
-2.17835e-11
-3.00617e-09
3.16195e-09
-2.32368e-09
2.16791e-09
5.06656e-09
1.77306e-10
-8.5453e-11
6.58197e-10
2.56316e-09
-1.50669e-09
-2.46359e-11
5.843e-09
4.67622e-11
-2.62796e-10
-4.73985e-09
1.131e-10
-1.65808e-10
4.79256e-09
-3.90188e-09
-2.44094e-09
9.28979e-10
5.41385e-09
6.89042e-09
-7.43025e-10
4.58423e-09
2.06343e-10
1.38331e-10
-4.92891e-09
1.43238e-11
7.06541e-09
-6.98617e-09
-9.35689e-11
5.28175e-11
-2.37592e-11
-7.0333e-10
2.50198e-09
-2.2735e-09
4.74849e-10
-6.29372e-09
6.26863e-09
-5.91583e-12
3.10066e-11
3.79659e-09
5.30543e-09
-4.80344e-09
-4.29859e-09
4.78776e-11
-3.26668e-09
3.25714e-09
-3.83289e-11
-3.38555e-09
2.39396e-09
-1.98647e-09
-1.00109e-10
1.5553e-10
5.85428e-10
-5.4398e-09
3.735e-10
2.48084e-09
-3.38318e-09
1.64766e-09
7.47458e-10
-6.94936e-10
3.43003e-10
-3.95524e-10
-5.48372e-09
3.24424e-10
4.92509e-09
-3.7211e-09
5.4606e-11
-6.18714e-09
6.18027e-09
-6.37221e-09
6.32629e-09
3.841e-11
7.51193e-12
-1.01518e-10
5.05133e-09
2.18372e-10
7.95476e-09
-8.39327e-09
1.04128e-10
3.34384e-10
-5.41052e-09
-3.06546e-11
3.11325e-11
-4.24294e-11
2.16004e-10
2.22072e-09
-1.8182e-09
-6.94781e-09
3.9492e-09
-3.93081e-09
-1.83891e-11
-3.12445e-09
3.20333e-09
-3.15895e-09
-6.24959e-09
6.22851e-09
-1.32684e-11
3.43447e-11
2.52293e-09
5.07361e-09
-4.06429e-09
-3.53225e-09
-5.1439e-09
5.53449e-11
-1.12006e-10
5.20057e-09
-5.59026e-09
-2.7236e-09
-2.73264e-10
8.58712e-09
5.33528e-09
-8.32319e-10
-4.50297e-09
7.82003e-11
-4.09577e-09
-5.51221e-09
3.87044e-10
2.35394e-09
-4.10794e-09
-1.16576e-09
2.91976e-09
-8.91781e-09
-1.6315e-09
1.08178e-09
-6.5161e-09
-2.88087e-09
8.31519e-09
2.78246e-09
-5.58187e-10
-2.10798e-09
-1.16283e-10
6.9614e-09
-1.55973e-09
2.09834e-09
-7.50001e-09
2.76408e-10
-6.37534e-09
-9.10067e-09
6.76636e-09
3.90889e-09
-1.57458e-09
-9.80107e-10
2.78656e-10
9.5215e-10
-2.4668e-09
-7.12829e-09
2.27717e-09
3.28316e-09
-3.21605e-09
2.50644e-10
-3.1775e-10
-6.20867e-09
6.19138e-09
-1.86095e-11
3.58989e-11
-6.49199e-09
-3.402e-09
3.04201e-09
9.46185e-10
5.0733e-09
-2.30718e-09
-3.7436e-10
3.57513e-09
-3.61102e-09
-4.56043e-10
-1.82099e-09
-9.95607e-10
-6.85618e-11
1.24638e-09
-1.82209e-10
5.8924e-09
-2.58816e-11
9.56871e-12
-5.87609e-09
2.26127e-09
-5.27257e-09
8.85125e-09
-5.83996e-09
-6.81993e-09
6.85753e-09
-5.5496e-11
-1.24505e-09
3.20548e-09
-1.89815e-09
5.32993e-09
-3.23313e-10
-1.15813e-09
1.14196e-09
3.39485e-10
-9.36251e-09
7.02522e-09
7.75526e-10
3.9132e-09
-2.56658e-09
-4.63503e-09
5.80269e-10
-4.95995e-10
2.43934e-10
-3.28208e-10
-2.12378e-09
-6.49046e-09
6.79605e-09
-7.5124e-09
6.67566e-09
1.08521e-10
1.8114e-10
-6.96532e-09
6.15141e-09
-6.17056e-09
-1.7907e-11
3.70624e-11
4.97278e-09
-1.04777e-10
1.65251e-10
-5.03325e-09
-8.67198e-11
-3.33243e-09
2.90703e-09
1.82899e-10
-4.00976e-10
-2.68895e-09
1.02968e-09
1.40606e-09
3.46721e-10
9.15935e-11
-1.70442e-10
-5.06041e-09
7.40044e-09
-4.82441e-09
-3.83109e-09
4.58989e-09
-4.03979e-09
2.82325e-09
-6.15067e-09
-6.88874e-11
6.18013e-09
-6.5998e-09
6.61727e-09
-4.93297e-11
-2.29419e-10
-8.61049e-10
9.48611e-11
-5.82489e-09
1.72739e-11
-4.56214e-11
5.85324e-09
4.099e-09
-4.13039e-09
-4.02004e-09
3.37559e-09
2.99839e-09
3.35301e-11
6.54748e-10
-4.14124e-11
8.91907e-09
-9.14282e-09
1.06663e-09
-8.42877e-10
-3.47763e-09
3.41065e-09
-2.81002e-09
2.13044e-09
1.67254e-09
-9.92964e-10
2.68639e-09
-3.34427e-09
1.70022e-09
-2.04423e-09
7.52672e-09
-7.78487e-09
-1.64569e-09
1.90385e-09
-1.08251e-08
-1.755e-09
8.0212e-09
-2.94958e-09
-7.49359e-10
5.01624e-09
-1.3173e-09
5.66013e-09
-1.22866e-09
-1.89084e-09
-3.77298e-09
3.72354e-09
1.94029e-09
-4.77189e-09
-4.24473e-10
-2.00426e-10
1.62666e-10
-5.77221e-09
6.35575e-09
-5.03818e-11
-6.83145e-09
6.89616e-09
3.4888e-09
-3.58962e-09
3.77136e-09
3.66215e-09
-2.86155e-09
3.20633e-09
-4.37169e-09
2.12345e-09
-3.5967e-10
-1.46716e-09
1.0301e-09
-1.63741e-09
1.63698e-09
-2.19933e-09
2.04209e-09
-2.35314e-09
3.35653e-09
-3.2894e-09
1.63482e-09
-1.70195e-09
1.54829e-09
-2.15441e-09
-3.62248e-09
4.2286e-09
-6.4689e-09
4.86382e-11
4.80534e-11
5.35802e-09
-3.54594e-09
-1.82274e-09
1.06553e-11
5.4024e-09
-1.29268e-10
7.39058e-11
-5.01278e-10
4.45908e-09
-3.9578e-09
3.31746e-09
-4.82972e-09
2.46971e-09
-5.78479e-09
5.80573e-09
2.7067e-11
-4.80133e-11
-9.26344e-10
-4.43108e-09
5.8553e-10
8.17352e-09
2.29546e-09
-2.06813e-09
-4.76297e-10
9.95148e-12
1.70173e-10
-8.93426e-12
-1.7119e-10
-2.53246e-10
1.49511e-09
-1.86963e-09
6.27764e-10
-2.15018e-09
1.66555e-09
3.24468e-09
7.07686e-09
-1.74157e-09
-1.33854e-09
1.41351e-09
-7.4969e-11
3.02457e-09
-3.07879e-09
-2.53018e-09
-6.72089e-10
-2.5343e-09
1.54622e-09
1.66016e-09
-2.16671e-11
3.45926e-11
-5.82555e-09
5.81262e-09
-2.13468e-11
-3.98481e-09
4.00616e-09
9.90269e-11
1.07729e-10
2.71203e-09
1.22647e-09
-2.73435e-09
-1.20415e-09
2.06442e-09
-2.07717e-09
-4.59627e-09
2.51435e-09
-4.86426e-10
2.56835e-09
-1.87265e-11
1.56205e-11
5.22238e-10
-3.89059e-11
1.81213e-09
1.76311e-09
-8.24205e-10
-3.89561e-09
2.9567e-09
-6.95589e-09
6.90001e-09
-2.63537e-09
-2.00544e-10
2.95155e-09
-3.58533e-09
6.18061e-09
-5.54683e-09
-3.40114e-09
-4.16996e-10
4.34021e-09
-5.22075e-10
-1.99277e-09
-3.33352e-09
3.43372e-09
-2.28959e-09
2.76549e-09
-2.54195e-09
4.53403e-10
-6.05198e-11
4.11629e-09
-2.47679e-09
2.07419e-09
-3.71369e-09
4.51974e-09
-3.02388e-09
8.12033e-10
5.40707e-09
-2.48651e-09
-5.60221e-09
-3.75576e-09
4.99046e-09
5.44278e-11
-1.28913e-09
-6.19472e-09
2.51038e-11
6.20277e-09
-3.31539e-11
3.43445e-10
-3.07056e-10
1.89337e-10
-2.25726e-10
4.57469e-09
-4.58531e-09
-2.97474e-10
1.1756e-09
-1.20143e-09
-3.98584e-09
3.96418e-09
-2.12157e-09
-4.78908e-09
1.77941e-09
-2.33874e-10
-7.84106e-10
-8.08269e-09
-6.3694e-09
6.64211e-09
3.69947e-12
2.80958e-09
7.46013e-09
6.81316e-10
6.14562e-09
-3.21529e-09
3.00058e-09
-5.93091e-09
-7.34579e-09
6.90421e-09
3.36893e-09
-2.92735e-09
2.81124e-11
6.83365e-10
1.83359e-10
3.55677e-09
-3.74013e-09
1.7863e-11
-2.93921e-11
-2.70453e-11
3.91353e-09
-3.88649e-09
-8.97807e-10
-4.15981e-09
7.45648e-10
-3.51421e-09
-2.6816e-09
4.29031e-09
-2.66495e-09
2.79738e-09
6.09359e-09
-6.22601e-09
2.92933e-09
9.30277e-10
-2.17261e-09
4.86943e-09
-4.13888e-09
4.41831e-09
1.74986e-09
-1.62852e-09
9.49886e-10
-6.23923e-10
-3.13598e-09
-2.21862e-10
5.5932e-09
-8.86671e-09
-8.83694e-10
8.49472e-09
-4.90843e-09
1.08832e-09
-1.33234e-09
1.29971e-09
-2.85918e-09
2.52237e-09
-9.62887e-10
-5.9383e-10