/*--------------------------------*- C++ -*----------------------------------*\
  =========                 |
  \\      /  F ield         | OpenFOAM: The Open Source CFD Toolbox
   \\    /   O peration     | Website:  https://openfoam.org
    \\  /    A nd           | Version:  8
     \\/     M anipulation  |
\*---------------------------------------------------------------------------*/
FoamFile
{
    version     2.0;
    format      ascii;
    class       volVectorField;
    location    "5.4";
    object      U;
}
// * * * * * * * * * * * * * * * * * * * * * * * * * * * * * * * * * * * * * //

dimensions      [0 1 -1 0 0 0 0];

internalField   nonuniform List<vector> 
5119
(
(0.000889324 0.00140001 1.0112e-22)
(0.000205397 6.82708e-05 4.5221e-21)
(0.000838797 1.33232e-05 -2.64428e-21)
(0.000596123 0.000800532 -7.10167e-25)
(0.000786799 0.00125077 2.02716e-22)
(0.000872518 8.17106e-05 1.36287e-21)
(0.000270157 0.000203041 -1.38142e-21)
(3.32719e-05 -4.43665e-06 -6.72096e-23)
(0.000232145 0.00107342 -1.15499e-21)
(0.000954469 0.00148265 8.30529e-23)
(0.00062744 0.000803612 1.09232e-24)
(0.000714976 0.00111791 -3.38698e-22)
(0.000710388 0.00113786 -2.33835e-22)
(0.000703854 0.000487557 1.05475e-21)
(0.000809325 0.00130094 -7.75101e-23)
(0.000653398 0.00110435 0)
(0.000802992 0.00137934 3.032e-22)
(0.00080049 0.00127228 -1.09291e-22)
(0.000919838 0.00147837 3.02435e-22)
(0.000743341 0.00118837 6.74335e-23)
(0.000725746 0.00118625 2.96543e-22)
(0.000654948 0.00104736 7.91344e-22)
(0.000662466 0.00106389 -1.65268e-22)
(0.000796898 0.00123944 1.17581e-22)
(0.000707646 0.00112737 0)
(0.000932679 0.00147945 6.98875e-22)
(0.00068073 0.00107228 0)
(0.000701975 0.00109538 8.97249e-23)
(0.000719293 0.00112168 3.44167e-22)
(0.00064779 0.00102312 9.47238e-23)
(0.00073599 0.00114441 -3.16975e-22)
(0.000725149 0.00113127 -8.54818e-24)
(0.000672156 0.00106189 5.78349e-22)
(0.000788652 0.00125351 0)
(0.000949433 0.00148043 -1.00339e-22)
(0.00068792 0.00108713 2.99974e-22)
(0.000661285 0.00104315 2.93871e-22)
(0.000672429 0.00106169 3.95016e-23)
(0.000635942 0.00108861 -5.36813e-25)
(0.000659876 0.00104258 9.56969e-22)
(0.000586932 0.000156189 -3.00804e-24)
(0.000851393 0.00144623 -4.26965e-22)
(0.000720145 0.00123849 2.31467e-22)
(0.000648721 0.00111724 0)
(0.00063756 0.00108889 -2.45832e-22)
(0.000603595 0.000151478 -2.09998e-21)
(0.00076049 0.00130424 -7.75922e-22)
(0.00065372 0.0011146 0)
(0.00073026 0.00123511 8.04222e-24)
(0.000713265 0.00123738 -2.14685e-22)
(0.000594604 0.000403366 -1.639e-21)
(0.000100595 0.000630189 -1.09079e-21)
(0.000936244 4.10532e-05 -5.61858e-22)
(0.00063327 7.55435e-05 2.26709e-21)
(1.53614e-05 0.000429688 -3.23849e-21)
(0.00064866 0.00107729 8.88923e-22)
(0.000684625 0.000757832 1.46236e-24)
(3.65547e-05 -1.52988e-06 9.45294e-22)
(0.000713457 0.00122103 0)
(0.000846664 0.0014204 0)
(0.00059629 0.00110775 -1.51967e-21)
(0.000642732 0.00108664 2.35291e-21)
(0.000668457 0.00111394 0)
(0.000772492 0.00130289 1.2676e-21)
(0.000476309 0.000101733 1.23033e-21)
(0.000764558 0.00131418 8.89274e-22)
(0.000747906 0.000364508 2.1832e-24)
(0.000879817 0.000578221 1.0876e-21)
(0.000755957 0.00126431 0)
(0.000694616 0.000508897 -3.20574e-22)
(0.000197795 0.000355282 -1.44233e-24)
(0.00017653 -2.29493e-05 -4.895e-21)
(0.000892077 0.000322109 1.47344e-21)
(0.000648694 0.00112389 4.23485e-22)
(0.000690805 0.00109792 -1.45545e-21)
(0.000869611 0.00136582 0)
(0.000315858 9.90628e-05 1.00802e-21)
(0.000607436 0.000211196 6.19506e-22)
(0.000613214 0.00112141 0)
(0.000549461 0.00100098 -8.07963e-22)
(2.16341e-05 0.000706376 0)
(0.000947857 0.000529322 0)
(0.000920305 0.00151497 0)
(0.000656147 0.00133833 1.83918e-23)
(0.000608872 9.88147e-05 0)
(0.000660399 0.00118676 1.49544e-22)
(0.00076329 -4.51548e-05 2.38117e-21)
(0.000699548 0.00118268 2.02187e-21)
(0.000532806 0.0011042 4.03549e-23)
(0.000556355 0.00114965 0)
(0.000542684 0.00112333 0)
(0.000522323 0.0010839 0)
(3.55747e-05 -1.11328e-06 -1.52795e-21)
(0.000417449 0.000768819 -1.49616e-21)
(0.000481873 0.00084993 0)
(0.000447587 0.000673663 2.5262e-21)
(0.00088121 -1.64526e-05 0)
(0.000667113 0.00115939 1.66092e-21)
(0.000673673 0.000782255 1.51369e-21)
(0.00066682 0.0011576 -1.41914e-22)
(0.000739862 0.00135192 6.71102e-22)
(0.000631086 0.00110724 0)
(0.00148645 0.000977877 -2.50074e-21)
(0.000805389 0.00155957 -4.51425e-22)
(0.000312887 0.000117549 2.186e-21)
(3.72074e-05 5.18227e-06 1.12545e-21)
(0.000687799 0.00126051 -2.0819e-21)
(0.000567932 0.00031037 4.72271e-22)
(0.000830576 0.000589926 1.37295e-22)
(0.000651208 2.80763e-05 0)
(0.00041371 0.00123754 -2.66693e-21)
(3.61329e-05 2.14693e-06 -2.21971e-26)
(0.000239883 -3.09764e-05 8.74326e-22)
(0.000752414 0.00124488 -2.13646e-22)
(0.000300854 0.000164777 4.46206e-21)
(0.000458491 0.000631958 -2.3895e-22)
(0.000501867 0.000789048 -1.89861e-21)
(3.93491e-05 4.56089e-06 -2.11199e-21)
(0.000492547 0.000566926 -4.14192e-21)
(0.000763195 0.00128128 1.10038e-22)
(0.000773819 0.000358646 0)
(0.000796726 0.00132861 -6.94531e-22)
(0.000157655 0.000842687 -4.71626e-22)
(0.000662938 0.00117439 1.33291e-21)
(0.000823495 0.00142757 -1.76526e-21)
(0.000910356 0.0015451 4.62539e-22)
(0.000689486 0.00124724 -3.89679e-24)
(0.00085945 0.00154004 -2.56724e-22)
(0.000788087 0.00129833 4.68388e-22)
(0.000651714 0.00111498 -3.43723e-22)
(0.000678121 0.00118913 -1.40776e-21)
(0.000650674 0.00110609 -2.32465e-22)
(0.000826436 0.00136921 -4.65185e-22)
(0.000732041 0.00123511 -4.39934e-22)
(0.000785463 1.42857e-05 -1.57147e-21)
(0.000572175 0.000332049 5.28269e-25)
(0.000643704 0.00126892 0)
(0.000697038 0.00118116 0)
(0.000234281 0.000323055 1.32795e-21)
(0.000777967 0.0012985 0)
(0.000644061 0.00112407 -1.07679e-21)
(0.00062921 0.00109937 3.6212e-22)
(0.000619971 0.00109288 2.80238e-22)
(0.000654222 0.00107304 1.21218e-22)
(0.00069989 0.00118247 3.83254e-22)
(0.000685955 0.00115195 1.54103e-22)
(0.000670924 0.00112517 -1.0092e-22)
(0.000697821 0.0011751 0)
(0.000681352 0.00114746 -1.02124e-22)
(0.000851073 0.00090335 -3.58842e-22)
(0.00061568 0.00120147 0)
(0.000888072 0.000185903 0)
(0.000636944 0.00113432 0)
(0.000427472 0.000757932 2.44375e-21)
(0.000331345 0.000612718 2.24868e-21)
(0.000848921 0.00143225 3.55561e-23)
(0.000395949 0.000633686 3.02779e-21)
(0.000938553 8.371e-05 0)
(0.000277013 0.000266406 1.07961e-21)
(0.000173596 0.000702206 2.2239e-22)
(0.000756703 0.00142145 -1.05736e-21)
(6.01995e-06 1.81342e-06 0)
(0.00014361 0.000266955 -2.36182e-21)
(0.000741768 0.00132031 -1.0104e-21)
(3.77266e-05 4.12719e-06 5.25244e-22)
(0.000984676 0.00024645 2.49663e-21)
(3.49301e-05 0.000189678 -6.47705e-21)
(0.000149882 -1.59944e-05 -1.55211e-21)
(4.12908e-05 -8.52075e-07 1.85983e-21)
(0.000128592 0.000566988 0)
(0.000263091 0.000353132 1.7426e-22)
(0.000834776 0.00147934 4.69252e-22)
(0.000469659 0.000546534 2.36433e-21)
(0.000472277 0.000462395 -2.36672e-22)
(0.000393826 0.000601992 2.43453e-21)
(0.000530904 0.00047469 -2.29743e-21)
(0.000147922 0.000314306 -1.72758e-24)
(0.000658927 0.00117775 1.17316e-22)
(3.63186e-05 8.33224e-06 -1.77144e-21)
(0.000791246 0.00141053 2.4704e-22)
(0.000789078 0.000337173 -3.22207e-21)
(0.000727128 0.000378059 0)
(0.00067545 0.00115493 0)
(0.000564071 0.000981457 -1.4646e-21)
(0.000257084 7.40887e-05 -2.87361e-21)
(0.000450979 0.000703222 -4.00608e-22)
(0.000459032 0.000107924 1.17926e-21)
(0.000315901 0.000302527 -1.13219e-21)
(0.000571734 0.000374413 -1.78957e-21)
(0.000260264 0.000180941 -1.15646e-21)
(0.000146157 0.000698986 0)
(0.000563824 0.00118455 -4.69487e-22)
(0.00071579 0.00122767 1.05269e-21)
(0.000522188 0.000548951 2.10312e-21)
(2.52625e-05 -4.906e-06 0)
(0.000325227 0.000742879 0)
(0.000689017 1.61959e-05 -1.48449e-21)
(0.00069902 0.000392381 5.46593e-21)
(0.000400623 0.000867501 1.11295e-21)
(0.000933915 0.000199336 2.04818e-22)
(0.000136673 -1.32736e-05 -4.1164e-21)
(0.000610035 0.00116043 0)
(4.19704e-05 1.80573e-06 -1.88987e-22)
(0.000730562 0.00129418 -2.89269e-22)
(0.000645504 0.00117567 0)
(0.00067416 0.00120954 2.60673e-22)
(0.000630729 0.00106994 1.20778e-21)
(0.000517882 0.00114271 -3.43502e-21)
(0.000308758 0.00040791 8.35123e-22)
(0.000786709 0.000555621 -4.6104e-21)
(0.000161957 0.000252378 2.35787e-21)
(0.000466032 0.000698598 4.87887e-23)
(0.000919323 0.000306993 -1.23215e-24)
(0.000523897 0.000781048 -1.52627e-21)
(0.000597554 0.000301173 4.38324e-22)
(0.000328221 0.00040817 -1.07273e-21)
(0.000246041 0.00031687 1.40011e-25)
(0.000411339 0.000611522 -1.27537e-21)
(0.000347358 0.000617875 -1.97447e-24)
(0.000339716 0.000293797 7.84941e-22)
(0.000746922 0.00152157 1.07404e-21)
(0.000418223 0.00064433 0)
(3.20614e-05 7.68208e-06 0)
(0.000624425 0.00117381 -7.93594e-22)
(0.000443801 0.000631075 -1.19421e-22)
(0.000546823 0.0008027 0)
(0.000245443 9.86358e-05 -3.40778e-25)
(0.000669104 0.000189028 0)
(0.000794829 0.00140156 0)
(0.000660428 0.00117723 2.17438e-22)
(3.14479e-05 1.81198e-05 -4.17808e-21)
(0.000766787 0.00130928 -5.25783e-22)
(0.000613282 0.00109835 7.74062e-22)
(0.000758943 0.00136826 1.69554e-21)
(0.000716455 0.00121999 0)
(0.000277305 0.000376035 9.4236e-23)
(0.00070599 0.00118067 1.69304e-21)
(0.000612116 0.00105272 0)
(5.21312e-05 0.000398968 3.55738e-22)
(0.000414156 0.00100937 -2.26961e-22)
(0.000441597 0.000573146 -2.63544e-21)
(0.000124252 0.000255873 7.14307e-25)
(0.000435365 0.000723658 4.64695e-23)
(0.00129348 0.00140757 0)
(0.000759855 0.0013873 -1.18657e-21)
(0.000850268 0.00156759 -2.59421e-22)
(0.000743554 0.00129274 -3.9306e-22)
(0.000306602 0.000372282 1.5489e-21)
(0.000627927 0.00104845 3.71594e-22)
(0.000585463 0.00106334 1.59285e-22)
(0.000658532 0.00112319 0)
(0.000867449 0.00148278 0)
(0.000667723 0.00114284 0)
(0.00068022 0.00122784 3.00208e-22)
(0.000611146 0.00108795 -4.20355e-22)
(0.000625403 0.00108631 -1.08596e-21)
(0.000625693 0.0011135 0)
(0.000583331 0.00106744 -2.06766e-22)
(0.000819813 0.00146227 4.43288e-22)
(0.000810108 0.000478517 -8.12174e-22)
(0.000296599 0.000284354 0)
(7.26467e-05 -0.000175321 -7.51952e-22)
(0.00116368 0.000945104 0)
(0.000692262 0.00122517 4.48865e-22)
(0.00063008 0.00111229 4.34199e-22)
(0.000648482 0.00113199 2.34827e-22)
(0.000729417 0.0012435 -5.8171e-22)
(0.000644403 0.00114296 0)
(0.000192958 0.000326154 1.7875e-22)
(0.000870651 0.00157131 -5.81665e-22)
(0.000558385 0.000356009 4.90557e-22)
(1.43476e-05 -8.15826e-06 0)
(0.00085348 0.00145597 4.28727e-22)
(0.000754952 0.00133543 2.01608e-21)
(0.00076372 0.00124697 7.36251e-23)
(0.000913832 2.28171e-05 3.17045e-21)
(0.0015988 0.00121964 2.05717e-21)
(0.000667313 0.00107187 0)
(0.000611946 0.00102141 4.30184e-23)
(0.000762202 0.00128411 1.14568e-21)
(0.000612015 0.000982051 1.17791e-21)
(0.000541614 0.000944732 -4.16787e-22)
(0.000529214 0.000923821 -5.49703e-22)
(0.000564075 0.000955294 3.97709e-22)
(0.000522719 0.000911208 0)
(0.000619285 0.00104997 -6.75416e-22)
(0.000720028 0.00123059 3.00007e-22)
(0.000582507 0.000990166 0)
(0.000728751 0.0012214 1.85205e-22)
(0.000594034 0.00100598 4.3321e-23)
(0.00064487 0.00100881 -1.13504e-21)
(0.000529687 0.000930365 -3.53478e-22)
(0.000572915 0.000895524 4.9892e-22)
(0.000160988 0.000236586 5.22021e-21)
(0.000692445 0.00119887 1.26763e-22)
(0.000730679 0.00125761 -1.30308e-21)
(0.000691384 0.00116597 0)
(0.000484812 0.000489273 2.19086e-22)
(2.11612e-05 0.000107642 1.39531e-21)
(0.000642611 0.00110982 0)
(0.00140433 0.000271649 0)
(0.000658085 0.00105914 4.97568e-22)
(0.000285447 0.000591717 0)
(0.000897426 0.000129496 2.72878e-21)
(0.00045244 0.000540065 0)
(0.000984019 0.000238301 0)
(0.000929547 9.82321e-05 0)
(0.000581536 0.00103478 1.1026e-22)
(0.00044941 0.000656273 2.81022e-22)
(0.000744838 0.00118366 -1.50525e-25)
(0.000629138 0.00102597 -1.48077e-22)
(0.000633371 0.00108342 0)
(0.00064544 0.0010788 7.4423e-22)
(0.00068889 0.00110489 -3.08682e-22)
(0.000737443 0.00126386 0)
(0.000756871 0.00124801 3.96479e-22)
(0.000259491 7.18791e-05 5.98313e-21)
(0.000843832 -0.000134117 1.92016e-21)
(0.000794728 0.00143461 -3.70031e-22)
(0.00082779 0.00138261 -7.38734e-22)
(0.000671517 0.000813334 1.53184e-22)
(0.000614755 0.00109246 2.96831e-24)
(0.000648309 0.00106531 -6.7979e-22)
(0.000904374 0.000140236 0)
(0.000419697 0.000761025 -1.27267e-21)
(0.000607247 0.00119098 -3.38698e-22)
(0.000753198 0.000692721 -2.76949e-21)
(0.000758053 0.00135354 -5.41927e-22)
(0.000753704 0.00126471 -2.77266e-24)
(4.33915e-05 0.000573043 -2.5056e-21)
(0.000688203 0.00111853 7.78575e-22)
(0.000927499 0.00155817 -9.64643e-22)
(0.000566266 0.00120633 1.59202e-22)
(0.000265816 0.000335493 1.05898e-21)
(0.000865894 4.82032e-05 0)
(0.000741714 0.00115126 1.56382e-22)
(0.000534527 0.000951753 -3.68659e-22)
(0.000661831 0.00118114 1.33912e-21)
(0.000690301 0.00112532 -1.95197e-22)
(0.000758157 0.00123308 -1.796e-22)
(0.000576428 0.00102439 1.17786e-21)
(0.000613023 0.000995005 2.89577e-22)
(0.000655765 0.000810343 4.1798e-23)
(0.000741538 0.00131815 -3.6994e-22)
(0.00056917 0.00100006 -1.01669e-21)
(0.000549845 0.00089118 -1.23011e-22)
(0.000659957 0.00105221 -4.66848e-22)
(0.00054057 0.000907679 0)
(0.00031154 0.000562973 1.40232e-21)
(0.000301088 0.000630794 0)
(0.000664031 0.00115562 -4.28671e-22)
(0.000644803 0.00103961 -1.16549e-21)
(0.000707822 0.00116029 3.73846e-22)
(0.000809215 0.00129025 -9.79141e-22)
(0.000695386 0.00111972 -6.92455e-22)
(0.00065702 0.00106409 -2.23274e-21)
(0.00070445 0.00116017 0)
(0.000686733 0.00115821 0)
(0.000695298 0.00111866 -2.78461e-22)
(0.000863397 0.00133565 1.25337e-21)
(0.00082588 0.0013953 4.34163e-22)
(0.000628928 0.00106329 -1.8337e-23)
(0.000634475 0.00107618 0)
(0.000647151 0.00102052 6.7795e-22)
(0.000637973 0.00103262 -2.20834e-22)
(0.000649784 0.00110252 -2.98206e-23)
(0.000830056 0.00135766 0)
(0.000641089 0.00103084 3.27957e-22)
(0.000643399 0.00107047 -8.48577e-22)
(0.000658837 0.00109679 4.97934e-22)
(0.00064288 0.00105262 0)
(0.000818094 0.00135743 -2.97418e-22)
(0.000866519 0.0014462 1.2416e-21)
(0.00087422 0.00144691 1.17612e-21)
(0.000519859 0.000694025 -1.37177e-24)
(0.000805726 0.000610227 2.30296e-21)
(0.000613647 0.000428196 1.65173e-21)
(0.000518475 0.000538253 -1.28999e-21)
(0.000757071 0.00137175 2.55416e-22)
(0.000822857 4.39084e-05 1.36493e-21)
(0.000178932 0.000678357 0)
(0.000294349 0.000259079 -1.41547e-21)
(0.000710659 0.00120713 -3.60155e-22)
(0.000675665 0.00119207 2.16459e-22)
(0.000660597 0.00113379 0)
(0.000719548 0.00132927 1.15188e-21)
(2.09193e-05 -1.03922e-06 -3.27732e-26)
(0.000587315 0.000951891 2.48999e-22)
(0.000647249 0.00104617 2.14116e-22)
(0.000547105 0.000938693 7.46594e-22)
(0.00101177 0.00021833 -2.84556e-21)
(0.000872629 0.000190043 -1.93149e-21)
(0.000697836 0.00137853 -8.73151e-22)
(0.000578725 0.000281323 -4.27834e-22)
(0.000532564 0.000919983 0)
(0.000517112 0.000910471 3.66058e-22)
(0.000533503 0.000868533 6.44889e-23)
(0.000572747 0.000947585 -2.59359e-22)
(0.000560529 0.000924443 -1.29308e-22)
(0.000751857 0.000390665 -2.15446e-21)
(0.000671774 0.00120115 3.59204e-22)
(0.000352741 0.000279563 4.20877e-22)
(1.9425e-05 -6.97489e-06 -2.9827e-25)
(0.000618563 0.00126262 5.40179e-22)
(0.000772451 0.00130709 -1.42903e-21)
(0.00107903 0.000575391 3.37902e-25)
(0.000123661 0.000800529 0)
(3.82588e-05 8.90726e-06 9.80037e-22)
(0.00010805 0.000541052 0)
(0.000536453 0.000904025 -9.23965e-22)
(0.000613982 0.00116448 0)
(0.000813514 0.00137519 0)
(0.000713289 0.00123023 6.27185e-22)
(0.000582376 0.000965212 0)
(0.000559638 0.000926701 -6.25409e-23)
(0.000568444 0.000942802 1.17346e-22)
(0.000270457 0.000824439 -2.13306e-21)
(0.000654409 0.00114831 -1.11932e-21)
(0.000769097 0.00124358 0)
(0.000755189 0.000286384 3.17973e-21)
(0.000565324 0.000284457 3.65249e-21)
(0.000612955 0.00109748 0)
(0.000455759 0.00056444 2.5571e-21)
(0.000575378 0.000350142 1.17772e-21)
(0.000285819 0.000352417 -3.64713e-22)
(0.000509198 0.000644231 3.05007e-22)
(0.000865563 0.000287942 2.48182e-21)
(0.000625817 0.00114507 4.60957e-22)
(0.000649737 0.00127908 0)
(0.000850415 7.22256e-05 1.05783e-21)
(0.000575444 0.00108385 3.22653e-22)
(0.000702774 0.00109448 2.25897e-22)
(0.00082628 0.00132614 -2.13969e-23)
(0.000977857 0.000194423 -3.26754e-21)
(0.00030158 0.000528845 0)
(0.000665447 0.000419067 0)
(0.000553447 0.00117159 -9.10188e-22)
(0.0006282 0.00121208 -1.68668e-21)
(0.000882646 0.000134112 2.74729e-21)
(0.000371668 0.000317624 1.69023e-21)
(6.67676e-05 0.000733204 1.83005e-22)
(0.000896159 0.00033396 0)
(0.000339396 0.000757961 6.79016e-22)
(0.000574101 0.00108161 0)
(0.000596651 0.00112177 5.96473e-23)
(0.000611515 0.00114885 0)
(0.00058589 0.00110213 0)
(0.000319772 0.000278055 4.32622e-25)
(0.000783555 0.00101497 2.32338e-22)
(0.000780469 0.0013514 1.86249e-22)
(0.00133089 0.000782047 -1.23432e-21)
(3.60531e-05 5.62557e-05 0)
(0.000902862 0.00149423 -8.21433e-22)
(0.000638013 0.00108735 0)
(0.000824456 0.00143269 0)
(0.000821077 0.00139796 -5.13879e-22)
(0.000616449 0.00108112 -1.48139e-23)
(0.000616461 0.00106185 2.30001e-22)
(0.000626508 0.00108878 1.71016e-22)
(0.000642 0.0011148 -6.87564e-22)
(0.000634628 0.00106759 -1.11943e-21)
(0.000832102 0.00145545 -4.26372e-22)
(0.000653984 0.00118057 -8.0664e-24)
(0.000689087 0.00111842 0)
(0.000324351 0.000390555 -3.89609e-22)
(0.000500023 -0.000141974 1.88549e-21)
(0.000796152 0.0013788 -1.06107e-21)
(0.000681894 0.0012238 -1.40155e-22)
(0.000683299 0.00116856 -3.27193e-22)
(0.000608062 0.00102245 3.87347e-22)
(0.000697253 0.00116486 7.06328e-22)
(0.00075678 0.00124193 3.56986e-22)
(0.000673603 0.0011141 9.76967e-22)
(0.000652008 0.00105155 9.62211e-22)
(0.000680971 0.00114062 0)
(0.000693514 0.00113556 -8.07345e-22)
(0.000658188 0.00109417 0)
(0.000820383 0.00131932 -5.52245e-22)
(0.000830006 0.00138542 3.9288e-22)
(0.000636552 0.00107748 1.65534e-22)
(0.000630034 0.00107094 -3.72475e-22)
(0.000651647 0.00110383 -8.80035e-22)
(0.000620186 0.00101059 5.80288e-22)
(0.000639379 0.00102705 -9.10995e-22)
(0.000814836 0.00135931 -1.003e-21)
(0.000611612 0.00102371 -1.72569e-23)
(0.00063917 0.0010925 -7.66212e-22)
(0.000623898 0.00106633 -2.9862e-22)
(0.000620437 0.00104479 -4.39069e-22)
(0.00078834 0.00134904 0)
(0.000865311 0.00146212 0)
(0.000861222 0.00142829 0)
(0.000198657 4.30702e-05 2.46921e-25)
(0.00110142 0.000628858 8.38933e-24)
(0.000461696 4.87565e-05 -6.17636e-22)
(0.000762486 0.00133413 -4.30343e-22)
(0.000530105 0.00112501 -1.35662e-23)
(0.000336498 0.000143943 3.77291e-21)
(0.000900248 7.88316e-05 0)
(0.000466461 0.00044533 8.63082e-25)
(0.001187 0.000368868 2.36923e-21)
(0.000636472 0.000187619 1.37634e-21)
(0.00065869 0.00127551 2.19925e-21)
(6.84313e-05 0.000747902 -2.38025e-21)
(0.000868376 0.000270533 -2.91526e-21)
(0.000719997 0.00134304 0)
(1.37371e-05 0.000548564 0)
(0.000709765 0.00124695 9.95101e-22)
(0.00030516 0.00119649 -1.30766e-21)
(0.00043869 0.000748293 -1.45451e-22)
(0.000419441 0.000748834 -1.37157e-22)
(0.000553816 0.0010013 -4.49177e-23)
(0.000465802 0.000762528 -3.90088e-22)
(0.00068894 0.0012306 0)
(0.000607869 0.00109112 2.82305e-22)
(0.000760209 0.00127122 3.863e-22)
(0.000315897 0.000650754 2.05316e-21)
(0.000451298 0.000488897 0)
(0.000186252 0.000240166 2.18669e-21)
(0.000420871 0.000576846 4.57769e-21)
(0.000919797 0.00155179 4.27267e-22)
(0.000588717 0.000923593 3.18609e-22)
(2.60652e-05 2.31197e-05 8.32537e-22)
(0.000536235 0.00118895 1.42041e-21)
(0.000139374 0.000716083 1.56962e-21)
(0.000857602 0.00154461 -3.47066e-22)
(0.00081843 0.00142941 2.12851e-22)
(0.000754647 0.00124859 8.05488e-24)
(0.000855267 0.000157759 6.45055e-22)
(0.000642282 0.00114367 1.61047e-21)
(0.000705103 0.00130556 -1.16536e-21)
(0.000678506 0.00115547 -1.08692e-22)
(0.000608828 0.00112552 0)
(0.00052075 0.000934997 0)
(0.000612777 0.00109938 2.41829e-22)
(0.000183071 0.000229352 -5.11234e-21)
(0.000855652 3.81739e-06 -3.24471e-21)
(0.000555205 0.00120763 3.39672e-22)
(0.000693219 0.000737283 -1.44813e-21)
(0.000624764 0.00106022 -1.67245e-22)
(0.000493415 0.0009439 -1.34599e-21)
(0.000618781 0.0010983 -4.31641e-22)
(0.000909913 0.00145481 4.60807e-22)
(0.000840651 0.00148025 3.68248e-22)
(0.000868391 0.00147732 0)
(0.00067076 0.00112331 1.24776e-21)
(0.000642601 0.00108527 -1.72937e-21)
(0.00114687 0.000391572 1.82368e-21)
(0.000665812 0.000789621 -1.30851e-21)
(0.000734938 0.00130348 1.03549e-22)
(0.000859322 0.00054062 4.91119e-24)
(0.000659363 0.00119973 0)
(0.0006203 0.000219088 0)
(6.50812e-05 -0.00013281 -1.33748e-22)
(0.00087408 4.20879e-05 0)
(0.000558168 0.00102747 -1.43396e-21)
(0.000722565 0.00129063 -3.40713e-23)
(0.000558695 0.00104157 0)
(0.000464809 0.000712742 5.75943e-22)
(0.000671458 0.00108171 0)
(0.000429809 0.000815786 0)
(7.95422e-05 4.28772e-05 0)
(0.000502115 0.000773995 1.44033e-21)
(0.000756193 0.00141824 2.9857e-24)
(0.000889572 -2.505e-06 -3.22823e-21)
(3.53777e-05 8.95501e-06 -2.00145e-21)
(0.000769192 0.000483513 2.49384e-21)
(0.000737209 0.0013675 -6.18903e-23)
(0.000271002 0.000311301 -1.42297e-21)
(0.00155156 0.000190285 -1.85262e-21)
(5.74099e-05 0.000849578 -7.47837e-22)
(0.000693137 0.00120184 0)
(0.000873007 0.000208388 0)
(0.000871507 0.000102078 -2.64692e-21)
(0.000896307 0.000345291 -1.60532e-21)
(0.000653413 0.00116947 -4.36639e-22)
(0.000334479 0.000738921 -8.12554e-22)
(0.000627152 0.00025344 0)
(0.000860364 0.000194646 0)
(1.96668e-05 -1.12117e-05 -2.16295e-21)
(0.000439662 0.00116902 -6.54902e-23)
(0.00040244 0.00112634 3.32626e-23)
(0.000581108 0.00150256 0)
(0.00116636 0.00108643 1.56778e-21)
(0.000753064 0.000555771 -4.25562e-24)
(0.000483051 0.000535378 -1.11892e-21)
(0.00098105 8.38445e-05 -1.99832e-24)
(0.000801825 -1.65755e-05 -1.55598e-21)
(0.000612746 0.00104691 -5.15277e-24)
(0.000782042 0.00126174 2.61739e-22)
(5.52593e-05 4.64101e-05 4.70235e-26)
(0.00051636 8.26204e-05 -9.22799e-22)
(2.72268e-06 2.87501e-05 -2.35214e-22)
(0.000611658 0.00108431 -2.65497e-22)
(0.000742589 0.000515777 1.96998e-21)
(0.000249474 0.000338003 -1.38812e-21)
(0.000881905 0.00152592 2.13642e-21)
(0.000657306 0.00112691 -3.8304e-22)
(0.000668977 0.00116446 -3.66084e-22)
(0.000653985 0.00113797 -5.21621e-22)
(0.000641777 0.00110842 -6.45126e-22)
(0.000877402 0.00147981 1.24405e-22)
(0.00067324 0.00115175 0)
(0.000829889 0.0014114 -5.60581e-22)
(0.000641166 0.00109061 1.43678e-22)
(0.000464156 0.00086119 0)
(0.000847234 7.76744e-05 3.56807e-21)
(0.000159078 0.000888179 -1.48557e-21)
(0.000171248 0.000208839 3.55357e-21)
(3.3007e-05 -9.73306e-05 2.24107e-21)
(0.000703538 0.00129086 -7.43387e-22)
(0.000844628 0.000206844 0)
(0.00096188 0.000556726 -3.19427e-22)
(0.000606816 0.00104057 1.40752e-21)
(0.000626539 0.00136395 3.90818e-22)
(0.000827111 0.000159055 1.31518e-25)
(0.000515851 0.000477365 1.41565e-21)
(3.0278e-05 5.06842e-05 0)
(0.00062404 0.00115097 0)
(0.000257331 0.000247002 -2.92971e-21)
(0.000615356 0.000287232 3.45898e-25)
(0.000290895 0.000330327 3.60036e-22)
(0.000508281 0.000745827 -4.12249e-22)
(0.000463523 0.000158533 1.14733e-21)
(0.000659309 0.00123965 0)
(0.000731991 0.00135411 -3.08992e-22)
(0.00140124 0.000755332 0)
(2.37687e-05 5.6606e-05 -7.47329e-21)
(0.000592847 0.000332192 -3.25114e-21)
(0.000639668 0.00031137 4.24279e-22)
(0.000830905 0.000211063 -1.35076e-21)
(4.20291e-05 0.000489572 3.10599e-21)
(0.000453706 0.00102143 3.15797e-22)
(0.000715011 0.00118419 8.42192e-24)
(0.000676362 0.00118581 -2.56487e-22)
(0.00100079 0.000379667 5.79524e-21)
(0.000503506 0.00118073 -1.05962e-21)
(0.000845991 0.00154827 -1.36163e-22)
(0.000652315 0.0011716 0)
(0.000704712 0.00129576 0)
(0.000859996 0.00153809 5.92144e-22)
(0.000607084 0.00113655 -3.11536e-22)
(0.000621834 0.00116322 -3.13578e-22)
(0.000655295 0.00119964 0)
(0.000610373 0.00112995 1.40823e-22)
(0.000693243 0.00131141 0)
(0.000590376 0.00111577 0)
(0.000826209 0.00153318 -6.74406e-22)
(0.000451336 0.000466428 -8.71886e-22)
(0.000700462 0.00127913 1.37392e-21)
(0.000325247 0.000650585 -1.39496e-21)
(0.000729617 0.00128875 5.08628e-23)
(0.000811049 3.123e-05 1.37826e-21)
(0.000867111 0.000233807 1.22747e-21)
(0.000354617 0.000639164 2.34416e-21)
(0.000248271 4.56475e-05 0)
(5.40677e-06 0.00014508 -4.83227e-21)
(0.000653808 0.00116387 -1.20529e-23)
(0.000847496 0.000280877 -1.50792e-21)
(3.43105e-05 5.93498e-06 -2.24429e-21)
(0.000631128 0.00114502 1.33644e-21)
(0.000653518 0.00120643 1.80994e-22)
(0.000644604 0.00112016 0)
(0.000632303 0.001368 -2.00135e-21)
(0.000537498 -7.93353e-05 -5.18966e-21)
(0.000591325 0.00125997 3.66886e-22)
(0.000224123 0.000761111 0)
(1.31692e-05 0.000180196 1.43174e-25)
(0.000807309 0.000728312 -1.75868e-22)
(0.000768646 0.00135579 0)
(0.000680024 0.00118459 1.44849e-22)
(0.000789939 8.83943e-06 0)
(4.79076e-06 0.000206344 1.84071e-21)
(1.22639e-06 0.00102755 -1.54955e-21)
(0.000135938 0.000672633 1.669e-21)
(0.000608199 -8.37118e-05 2.14245e-21)
(0.000692122 0.00128903 -1.00352e-21)
(0.000157433 0.000320775 0)
(0.000555693 0.000159844 -7.16116e-22)
(0.000908229 0.000624021 -1.35836e-21)
(0.000716137 0.0012445 0)
(0.00066272 0.00111569 2.5474e-22)
(0.000572647 0.00099101 -6.74488e-22)
(0.000615075 0.0010316 0)
(0.000534643 0.00093148 -1.00238e-23)
(0.00050265 0.000193812 6.66771e-22)
(0.000334599 0.000688417 4.59278e-23)
(0.00031772 0.000669271 1.07096e-23)
(0.000444125 0.000918267 4.54274e-23)
(0.000572318 0.00128043 1.04904e-21)
(0.000891297 0.00020455 0)
(0.000889348 0.00010337 1.49591e-21)
(0.000512775 0.0010124 -7.21825e-22)
(0.000208818 0.000290333 -2.42295e-21)
(0.000513254 0.000917434 0)
(0.000334812 0.000706567 1.08839e-23)
(0.000380202 0.000806486 1.18548e-23)
(0.0007123 6.12374e-05 4.27535e-25)
(0.000599679 0.00103893 -1.73436e-22)
(0.000670347 0.00126437 3.42369e-22)
(0.000704847 0.00125394 -1.0769e-21)
(0.000596458 0.00112289 0)
(0.000623369 0.00111188 4.6722e-22)
(0.000596381 0.000948727 0)
(0.000538149 0.000667667 -1.42237e-25)
(0.000532927 0.000928245 0)
(2.48635e-05 0.000177872 -4.33412e-25)
(0.000621021 0.000185639 3.43988e-22)
(0.000431236 0.000543428 -1.19686e-21)
(9.74512e-05 4.91015e-05 0)
(0.000871876 0.000310298 0)
(0.000438346 5.50413e-05 -6.35451e-24)
(0.000627148 0.000762543 1.68256e-21)
(0.00105449 0.000482933 6.38422e-22)
(0.000673602 0.00114293 -2.08873e-22)
(0.000425862 0.000466927 7.35566e-22)
(0.000610414 0.00129913 -2.50086e-21)
(0.000686375 0.00141863 -2.45288e-22)
(0.000563698 0.00104733 1.78812e-21)
(0.000541779 0.000171047 0)
(0.000830422 0.000427891 -4.97944e-22)
(0.000702722 0.00110248 6.03087e-24)
(0.000293033 0.000306537 0)
(0.000562125 0.0010115 -5.44571e-22)
(0.000478617 0.000573831 -5.12665e-21)
(0.000163585 0.000192651 1.88491e-21)
(0.000846652 0.00149165 1.14805e-22)
(0.000794348 0.000665649 -1.93635e-21)
(0.000513691 0.00115018 5.913e-22)
(0.0010002 8.40214e-05 -1.73313e-21)
(0.000666475 0.000533337 1.15486e-21)
(0.000800436 0.00142427 -7.92735e-23)
(0.00050284 0.000573098 -1.23543e-24)
(0.00115933 0.000353686 -5.19223e-22)
(0.000407431 0.000327513 1.36106e-21)
(0.000280812 0.000589888 9.60968e-24)
(0.000286368 0.000601839 9.75566e-24)
(0.000294023 0.000618473 9.93785e-24)
(0.000350125 0.000741118 -8.3797e-23)
(0.000274824 0.00057738 3.75322e-23)
(0.000182781 0.000181585 0)
(0.000755416 0.000521123 0)
(0.000561804 0.000887911 -1.94277e-21)
(0.000848132 1.73905e-05 0)
(0.000172543 2.75441e-05 1.93654e-21)
(2.20648e-05 6.13022e-05 3.50007e-21)
(0.000502741 0.000400088 -1.40124e-21)
(0.000409668 0.000647472 2.30701e-21)
(0.00116823 0.00065146 3.49372e-21)
(0.000535829 0.000951891 4.66662e-22)
(0.000560092 0.000968226 -9.33408e-22)
(0.000545585 0.000962794 2.36152e-22)
(0.000595121 0.00102442 -1.06888e-21)
(0.000760345 0.00131505 0)
(0.000661655 0.0011682 2.64163e-22)
(7.10979e-05 5.05655e-05 1.99316e-21)
(0.000872823 0.00027961 1.62249e-21)
(0.00044138 0.00083011 -9.65248e-22)
(0.000469332 0.000865791 -7.18316e-22)
(0.000605954 0.00102 -3.28235e-22)
(0.00051454 0.000825755 3.70631e-22)
(0.000476393 0.000779005 4.10957e-22)
(0.000433544 0.000776844 9.33716e-22)
(0.000582302 0.000855175 2.39214e-23)
(0.000489837 0.000731679 0)
(0.000551013 0.000922774 -6.84028e-22)
(0.000451207 0.000841252 5.97699e-22)
(0.000570628 0.000944176 -4.57778e-22)
(0.000556921 0.000991657 -6.86268e-22)
(0.000427336 0.000769329 -2.0372e-22)
(0.000416568 0.000758784 4.20754e-22)
(0.000540494 0.00098468 0)
(0.000427369 0.000727376 -9.47843e-22)
(0.000426582 0.000759148 2.33458e-22)
(0.000436734 0.000776728 4.45412e-22)
(0.000700688 0.00102065 -1.79866e-22)
(0.000430822 0.000792321 -1.72948e-22)
(0.000439197 0.000811662 0)
(0.000428806 0.000792945 3.6727e-22)
(0.000464916 0.000753641 0)
(0.000409326 0.000755947 2.37641e-23)
(0.000544435 0.00100052 -1.03317e-23)
(0.000558938 0.000999431 1.3104e-23)
(0.000648688 0.00108053 0)
(0.000506527 0.000778898 3.4466e-21)
(0.000587263 0.00105393 6.38309e-22)
(0.000629928 0.00103114 -1.98474e-21)
(0.000408603 0.000768402 -8.23101e-22)
(0.000511194 0.000781508 0)
(0.000470149 0.000848865 -7.56759e-22)
(0.000518767 0.000955993 3.91736e-22)
(0.000495207 0.00081327 0)
(0.000862628 0.000149015 -1.20971e-21)
(0.000755295 0.00131014 2.29591e-22)
(2.57829e-05 8.66691e-06 1.1449e-21)
(0.000781866 0.00145941 -1.66264e-22)
(0.000915682 1.66865e-05 -1.38598e-21)
(4.26942e-05 9.22291e-07 2.4234e-21)
(4.06992e-05 -2.62936e-06 0)
(0.000121508 0.000285787 1.27996e-21)
(0.000635038 0.00111632 -4.12373e-22)
(0.000646021 0.00115399 0)
(0.000736062 0.00125097 -1.98379e-21)
(1.50027e-05 5.14587e-05 -2.19365e-21)
(0.000208553 0.000516507 0)
(7.53351e-06 -8.57278e-06 -1.94759e-21)
(0.000736243 0.00014891 1.68746e-21)
(0.000853113 2.63443e-05 -6.20117e-22)
(0.000705265 0.00117728 1.61283e-21)
(0.000403175 0.00108938 -6.33525e-22)
(0.000277757 0.000403887 -1.06925e-22)
(0.000420537 0.000824433 1.75736e-21)
(0.00020906 0.000564927 -1.74739e-21)
(0.00107879 0.000471193 7.73342e-23)
(0.000155483 0.000826423 1.7703e-21)
(0.000821258 0.000339654 8.14089e-22)
(7.09857e-05 4.12928e-05 3.57153e-21)
(0.0010052 2.13517e-05 3.80691e-21)
(0.000714926 0.00122303 -1.47057e-23)
(0.000604725 0.00026198 -2.19667e-21)
(0.00102172 0.00025764 1.61332e-24)
(5.11529e-05 0.000326969 -1.41137e-21)
(0.000584618 0.00119151 -1.38367e-23)
(0.000546968 0.00118028 0)