/*--------------------------------*- C++ -*----------------------------------*\
  =========                 |
  \\      /  F ield         | OpenFOAM: The Open Source CFD Toolbox
   \\    /   O peration     | Website:  https://openfoam.org
    \\  /    A nd           | Version:  7
     \\/     M anipulation  |
\*---------------------------------------------------------------------------*/
FoamFile
{
    version     2.0;
    format      ascii;
    class       volVectorField;
    location    "51.5";
    object      U;
}
// * * * * * * * * * * * * * * * * * * * * * * * * * * * * * * * * * * * * * //

dimensions      [0 1 -1 0 0 0 0];

internalField   nonuniform List<vector> 
591
(
(0.000821037 -3.32282e-05 1.2184e-18)
(0.000806126 -2.89863e-05 -6.63365e-19)
(0.000855519 -2.82784e-05 5.69248e-20)
(0.000850187 -2.51793e-06 -1.4919e-19)
(0.000833106 1.04773e-05 2.25249e-19)
(0.00079937 -4.00275e-05 -1.39679e-19)
(0.000549461 -0.000333933 8.06381e-19)
(0.000800971 2.42769e-06 2.06556e-18)
(0.00573756 0.00249319 9.87764e-19)
(0.000791951 -1.56475e-05 2.44687e-18)
(5.23383e-05 0.000173804 1.21851e-18)
(0.000918087 0.00136452 9.41087e-21)
(0.000796681 7.24045e-06 1.31286e-18)
(0.00160177 0.00237854 -7.87916e-19)
(0.000802535 5.32988e-06 -4.38312e-19)
(8.61787e-05 -0.000225948 2.51941e-22)
(0.000134053 0.000676082 7.05215e-19)
(0.000820012 4.89608e-05 -4.90126e-19)
(0.00194188 0.00038426 4.7308e-19)
(0.00135432 0.000260601 -2.47212e-19)
(0.000833022 -1.66186e-07 3.72092e-19)
(0.00339996 0.00655879 -8.15045e-20)
(3.04182e-05 7.2916e-05 2.71025e-19)
(0.000832723 -6.29008e-06 -4.50391e-19)
(1.41242e-05 -1.8779e-05 3.59048e-19)
(0.000763475 2.92353e-05 0)
(9.18631e-05 0.000477726 1.60003e-19)
(0.000530288 1.92544e-05 -1.78904e-19)
(0.000750034 5.00352e-05 1.14994e-18)
(0.000815772 3.28537e-05 5.89947e-19)
(6.17253e-05 -2.58168e-06 -3.91883e-24)
(3.83728e-05 -4.97529e-05 3.52295e-19)
(4.0797e-05 -3.48856e-06 -4.64104e-20)
(4.94135e-05 -1.13154e-05 0)
(5.84521e-05 -1.35552e-05 1.13185e-18)
(0.00117203 0.000128739 1.79945e-19)
(3.50184e-05 -6.12137e-06 4.47296e-20)
(0.000826953 1.1083e-05 3.23478e-23)
(2.99338e-05 4.66611e-05 2.66115e-19)
(3.0525e-05 -0.000121628 -8.54891e-19)
(0.000610186 -0.000201919 9.59519e-19)
(2.85525e-05 -7.847e-06 4.54976e-20)
(0.000795367 -3.31878e-06 -1.57622e-18)
(0.000827428 3.32294e-05 -6.88391e-19)
(1.99497e-05 -9.34312e-06 0)
(5.84653e-05 8.63033e-06 8.52147e-20)
(0.00133876 0.00450971 8.93171e-19)
(8.01211e-05 1.90415e-05 8.63897e-20)
(0.000797568 1.90914e-05 0)
(0.000374661 -0.000183536 6.77997e-19)
(0.000376583 0.000277031 5.12056e-21)
(0.000389342 5.89777e-05 -1.00412e-18)
(0.00634781 0.010942 -7.68411e-19)
(0.00622493 0.0107971 1.52878e-20)
(0.00561423 0.0103806 1.45573e-18)
(0.000811045 1.83167e-05 0)
(7.01886e-05 3.39755e-05 0)
(0.000318643 2.34928e-05 1.15094e-23)
(6.67591e-05 1.26238e-05 -3.46569e-19)
(0.000818567 -8.05927e-06 0)
(0.000624196 2.81596e-05 3.17679e-19)
(0.000826026 2.33625e-07 2.21162e-18)
(0.000789598 1.84585e-05 -5.44742e-19)
(0.000797409 1.77599e-05 -3.15863e-19)
(0.00171784 0.000468807 5.42375e-19)
(0.000791716 5.74339e-06 -1.15483e-18)
(0.000822451 7.88844e-06 -5.24209e-19)
(8.63281e-05 1.67133e-07 -1.73467e-19)
(0.000686069 0.00227167 0)
(0.000827705 2.87193e-05 0)
(0.000769024 1.52299e-05 -1.38913e-18)
(4.05537e-05 1.76175e-05 0)
(0.000285536 0.000273882 3.26933e-19)
(4.47285e-05 -1.85033e-05 0)
(4.54834e-05 -6.27664e-06 1.59524e-19)
(2.23131e-05 -4.97594e-05 -3.36787e-20)
(0.000781126 7.23221e-05 2.47144e-19)
(4.71615e-05 1.21222e-05 0)
(0.000793195 5.70504e-05 4.47464e-19)
(0.000762979 0.000295304 2.10793e-19)
(0.000965058 6.02997e-05 -3.98079e-20)
(4.55568e-05 2.51488e-05 -4.52007e-20)
(6.6392e-06 -3.04836e-05 0)
(0.000427588 0.000220185 1.70235e-19)
(2.77467e-06 2.6948e-05 0)
(0.000776765 3.20363e-05 -6.08843e-19)
(0.00058615 -0.000120238 0)
(6.92298e-05 1.42352e-07 -1.74535e-19)
(4.57231e-06 -4.14904e-05 0)
(0.000820472 0.000245298 -3.41379e-19)
(4.62383e-06 -1.84771e-05 0)
(0.000418668 0.000324454 -1.28011e-23)
(0.000521122 0.000114325 0)
(0.000799214 4.8326e-05 -3.92764e-24)
(2.97045e-06 1.75413e-05 -4.21849e-20)
(0.000444896 -4.34429e-06 1.76415e-18)
(0.00102376 7.26625e-05 4.16177e-20)
(0.000873803 4.29226e-05 6.40937e-22)
(0.000732396 0.000657057 2.69577e-19)
(6.24703e-06 5.50936e-05 0)
(4.25922e-06 -6.89669e-05 -3.12474e-19)
(-6.53645e-06 -0.000129082 -1.09974e-18)
(3.27975e-06 8.66566e-05 -5.96359e-19)
(0.000650505 -1.4727e-05 0)
(7.16814e-06 0.000112361 0)
(0.000800433 1.72646e-05 2.20385e-18)
(0.000777681 2.04334e-05 1.52851e-18)
(0.000412987 -6.07532e-05 0)
(4.59975e-05 0.000224287 -8.95539e-19)
(-1.04509e-06 0.00018218 4.96577e-19)
(6.77461e-05 0.000428929 6.25156e-19)
(0.000301257 9.33038e-05 -9.37361e-19)
(0.000803442 1.82669e-05 1.37389e-19)
(0.000263406 -2.62134e-05 5.31394e-19)
(3.93586e-06 3.7704e-05 0)
(2.62284e-05 0.000298473 -1.09399e-18)
(0.000316833 0.00032677 -1.61746e-19)
(4.38668e-06 -5.48609e-05 1.46623e-19)
(0.000667919 0.000810679 0)
(0.000364216 0.000390859 5.74569e-20)
(0.000810122 7.09058e-06 1.07063e-18)
(0.000797067 -8.54973e-08 -2.68482e-18)
(7.59529e-06 -8.04828e-05 0)
(0.000694339 -2.69959e-05 -1.1236e-19)
(0.000319628 -9.10355e-05 1.24365e-18)
(0.00265385 0.000796244 -3.35963e-19)
(3.4398e-06 0.00014327 -6.1319e-19)
(6.55557e-07 0.00017474 1.61935e-18)
(0.000751588 2.01016e-05 -3.89793e-20)
(6.79083e-05 -1.14168e-05 -7.5041e-19)
(0.000799893 2.36795e-05 -3.88647e-19)
(0.000799418 2.61913e-05 -4.10292e-20)
(4.34803e-05 0.000345479 -5.96815e-19)
(0.000477543 7.43644e-05 -4.94083e-19)
(5.25346e-05 -2.74099e-06 1.56205e-19)
(0.000825391 1.88342e-05 -1.08519e-18)
(0.00158458 0.000232083 -1.13646e-18)
(3.27921e-06 6.92739e-05 4.96448e-19)
(0.000806148 1.8191e-05 -4.95009e-19)
(0.000898825 0.000539689 -7.85339e-20)
(0.000138161 0.000805865 0)
(0.000570916 6.61014e-05 0)
(0.000273616 5.94514e-05 -1.61017e-18)
(6.55349e-05 6.15624e-05 -1.37452e-18)
(3.27462e-05 2.21501e-05 0)
(0.00424708 0.00740004 -1.01981e-20)
(0.00422542 0.00737142 3.16434e-20)
(0.00442755 0.0075742 -4.96824e-21)
(0.00420668 0.00773599 0)
(0.00419916 0.00760132 5.77139e-19)
(0.00424429 0.00740093 -9.19758e-20)
(0.0042102 0.00804408 4.84333e-19)
(0.00428953 0.00742151 0)
(0.00420823 0.00853792 6.16627e-19)
(0.00432629 0.00744999 2.23911e-19)
(0.000815588 -4.00633e-07 -1.37224e-18)
(0.000760641 5.05867e-05 0)
(0.000215926 6.01902e-05 1.27726e-19)
(5.31074e-05 1.76055e-05 8.72125e-20)
(8.04688e-05 4.79891e-05 6.80233e-19)
(0.000108841 4.50715e-05 -3.41774e-19)
(0.000104007 8.99954e-06 0)
(5.13171e-05 6.00088e-06 8.1862e-20)
(0.000205196 0.000138632 0)
(0.000167938 4.90878e-05 -5.24417e-20)
(0.000340088 0.000226611 -5.09395e-21)
(5.80252e-05 4.55716e-05 -4.37793e-19)
(9.36732e-05 3.07559e-05 -8.52741e-20)
(9.264e-05 6.5366e-05 1.31235e-21)
(0.000251736 0.000369534 -6.66351e-19)
(0.000108426 0.00101842 0)
(4.3798e-05 5.5181e-05 3.4317e-19)
(0.000206385 0.00176069 0)
(0.000206979 0.000257017 7.04855e-19)
(4.12361e-05 -4.44137e-06 1.11452e-19)
(0.000476144 0.000166843 -1.72352e-19)
(0.000752769 2.65065e-05 -1.92477e-18)
(4.57353e-05 -8.49471e-07 4.28013e-24)
(0.000152 2.99734e-05 2.24657e-19)
(0.000242208 9.90576e-05 -8.996e-20)
(0.000880201 0.000709839 3.35035e-19)
(0.000719279 0.00162957 -9.23773e-21)
(0.000383855 0.00142915 -9.391e-21)
(0.00102032 0.000552955 0)
(0.00010746 -1.30537e-05 1.11908e-18)
(0.000119893 2.06247e-05 -4.43285e-20)
(0.000442448 -0.000283235 -1.13602e-18)
(0.000806921 3.3281e-05 0)
(0.000183793 1.17509e-05 3.63406e-19)
(0.000301139 0.00132389 0)
(0.00106097 0.0007664 -7.3041e-20)
(0.000824316 3.64973e-05 -1.86327e-19)
(8.27113e-05 -1.98416e-05 -3.00082e-19)
(0.000818461 0.000320011 -2.08114e-20)
(6.35038e-05 -2.16344e-05 -5.99703e-19)
(0.000226014 0.000179738 8.64119e-20)
(0.000228063 0.000311209 -3.45106e-19)
(0.000877928 0.000243783 0)
(0.000807065 4.80322e-05 0)
(0.000261049 0.000143557 1.76898e-19)
(0.000234532 9.94962e-06 1.3598e-24)
(0.000184425 0.000209745 0)
(0.000286894 0.000654605 -5.55847e-21)
(0.000340024 6.46169e-06 0)
(0.000358768 0.000601455 0)
(0.000111217 8.64896e-05 -1.34712e-21)
(0.000810024 2.0002e-05 -9.40277e-19)
(0.000810023 1.63919e-05 7.84916e-19)
(0.00013111 6.23662e-05 -1.49902e-19)
(0.000949478 0.000152886 8.50941e-20)
(0.00083153 4.55365e-05 3.32962e-19)
(0.000810462 2.22137e-05 -2.93398e-19)
(0.00100765 0.000408353 0)
(0.000433056 0.000124139 6.24633e-19)
(0.000890771 0.00031796 2.09205e-20)
(0.00056721 0.000160116 0)
(0.000271622 0.00044606 4.09748e-19)
(0.00026046 0.00022136 -8.44412e-20)
(0.00109321 0.000375587 -7.8227e-19)
(0.000612703 0.00010869 -1.79353e-19)
(0.000800709 7.40816e-05 -7.45555e-21)
(0.000833813 2.9512e-05 9.3821e-20)
(8.98125e-05 -8.86953e-05 -1.982e-18)
(0.000732819 0.000382401 2.19299e-19)
(0.000657335 6.18776e-05 2.30684e-20)
(0.000699642 0.000278251 1.58922e-23)
(0.000722791 0.000456986 -4.09731e-19)
(0.000839883 3.62795e-05 9.06678e-20)
(7.39093e-05 8.38946e-05 0)
(0.000649465 0.000416993 -4.65912e-20)
(0.000184446 0.000101306 0)
(0.0003728 0.000502529 -2.64903e-19)
(0.00030932 0.00017278 0)
(0.000668096 0.00020291 3.55345e-19)
(0.000641924 0.00026187 -4.37391e-20)
(8.23781e-05 0.00010688 6.1935e-19)
(0.000873994 9.18105e-05 -1.62155e-18)
(6.05899e-05 2.41216e-05 2.57273e-19)
(0.000877455 5.99174e-05 -1.68213e-18)
(0.000832494 8.38945e-05 1.63146e-19)
(0.000805133 2.82125e-05 1.89994e-18)
(0.000805759 2.82989e-05 -1.30034e-19)
(0.000726899 7.37482e-05 0)
(0.000806264 2.9842e-05 8.9581e-19)
(0.00094737 0.000229245 -4.27248e-19)
(0.000762001 8.74573e-05 -4.83821e-19)
(0.000773527 0.000227914 -8.81522e-20)
(0.000224515 -0.000143522 -2.08009e-18)
(0.000734799 8.34247e-05 8.87128e-19)
(0.000637796 0.00059703 0)
(0.000107201 -0.000110199 0)
(0.00120648 0.00047022 4.9726e-19)
(0.000681664 -6.81721e-05 -3.23478e-18)
(0.00132954 0.000428445 5.76077e-19)
(0.00123177 0.000719463 -6.3844e-20)
(0.0008028 3.3908e-05 -2.10944e-19)
(0.000827735 6.85548e-05 -1.42435e-18)
(0.000813524 2.01458e-05 1.5565e-18)
(0.000814544 3.00322e-05 9.6737e-20)
(0.000666066 0.000349329 -4.40536e-20)
(0.000103415 0.000129074 5.42847e-24)
(0.000737993 -4.94668e-05 2.65187e-19)
(0.000227646 -0.00024037 -7.33282e-19)
(0.000613622 0.000188639 0)
(0.000696568 3.65024e-05 9.90753e-20)
(0.000676352 1.03632e-05 -3.80944e-19)
(0.000384272 0.000174934 3.93477e-20)
(0.000798284 0.000501376 -1.65522e-19)
(0.00015125 8.09588e-05 2.86379e-25)
(0.000807043 0.00040531 0)
(0.000971217 0.000321028 4.15908e-20)
(0.000743931 -8.38701e-05 -6.16529e-19)
(0.00034366 0.000110935 4.97937e-19)
(0.000900556 0.000422162 0)
(5.17867e-05 3.3511e-05 1.33753e-19)
(0.000476345 0.000270793 2.14012e-19)
(0.00047852 -0.00013016 -7.09609e-19)
(0.000154224 -0.000148649 -1.05938e-18)
(0.000819341 2.54225e-05 -4.78016e-19)
(0.000788025 -0.000103035 -1.94127e-19)
(0.000555913 0.00072611 -1.1747e-18)
(0.000838726 4.53872e-05 -6.72605e-20)
(0.000677366 -2.77271e-05 1.26177e-18)
(0.000688119 9.92146e-05 2.2786e-20)
(0.000522702 0.000213617 -1.65732e-19)
(3.57214e-05 -2.33217e-05 -8.76108e-20)
(0.000178597 -3.52147e-05 2.40686e-18)
(2.27445e-05 8.63214e-07 -1.94887e-19)
(0.000813275 0.000105034 3.63627e-19)
(0.000649747 0.000137879 0)
(0.000194261 -7.12451e-05 -1.04841e-18)
(0.000126103 -1.1826e-05 3.13004e-19)
(0.000118303 -3.35189e-05 7.07808e-24)
(0.000789741 0.000109512 -3.19367e-19)
(0.000156651 -7.55964e-06 0)
(0.000577602 0.000243321 0)
(0.000111155 0.000334271 -3.62949e-19)
(0.000851487 9.94652e-05 2.10092e-18)
(1.8547e-05 1.39515e-06 0)
(0.000869097 5.04662e-05 0)
(4.82291e-05 -2.64244e-05 0)
(0.000813866 3.98395e-05 -4.45428e-21)
(0.000794901 -5.47828e-05 0)
(0.00425977 0.0074061 8.07046e-20)
(0.00436195 0.00748588 1.43622e-19)
(0.000843184 3.75361e-07 0)
(0.000774545 -5.39979e-05 8.11461e-19)
(0.000153319 0.000129938 1.49251e-19)
(0.000845985 7.24054e-05 8.08178e-19)
(0.000131895 0.000106541 2.34465e-20)
(0.000769894 -3.36843e-05 6.25364e-19)
(3.73337e-05 1.07905e-05 0)
(3.20775e-05 -1.50632e-05 -4.48622e-20)
(0.000885688 5.03909e-05 -4.86652e-19)
(3.86809e-05 -3.40097e-05 -6.69995e-19)
(0.000747649 0.000119183 -4.23382e-20)
(0.000167991 0.000167582 -1.88151e-19)
(0.000812479 2.20081e-05 0)
(0.00468252 0.00815395 9.02519e-22)
(0.000171356 0.000785448 3.33654e-19)
(0.000126608 -5.29915e-05 -9.14806e-19)
(6.71705e-05 -3.51792e-05 -1.1691e-18)
(0.000688636 1.57522e-05 1.89923e-20)
(0.000576998 0.000411544 0)
(0.000411898 0.000439599 -2.564e-19)
(9.56289e-05 -5.67249e-05 1.18401e-18)
(0.000645965 1.33995e-06 7.6802e-20)
(4.5018e-05 2.32057e-06 4.07214e-19)
(0.000679207 -5.7635e-05 1.17207e-18)
(0.000808277 3.08295e-05 -5.9623e-19)
(7.54829e-05 -5.54714e-05 1.70969e-18)
(0.000841265 -1.20706e-05 -5.14358e-24)
(0.000665037 7.86309e-06 -3.76642e-20)
(0.000860592 6.49371e-05 0)
(0.000829177 3.33983e-05 0)
(0.00591763 0.00723668 2.59392e-19)
(2.38272e-05 -1.24287e-06 -1.19607e-19)
(0.000146967 -9.10746e-05 7.73159e-19)
(0.000715496 0.000121123 -6.96681e-19)
(2.73391e-05 -3.57338e-07 2.01544e-19)
(0.000598311 -3.10181e-05 -7.24076e-19)
(0.00073344 3.51094e-05 1.55861e-18)
(0.000696171 0.000158218 -3.55551e-19)
(0.00080718 -1.36037e-05 3.58713e-19)
(8.49914e-05 -3.17509e-05 1.11639e-18)
(0.0007967 8.43555e-06 -3.22815e-19)
(0.000860141 4.48748e-05 0)
(0.000534277 0.000303204 4.2114e-20)
(0.00084712 4.86379e-05 -9.38969e-19)
(2.41465e-05 1.55245e-06 9.11364e-19)
(0.00084411 4.62548e-05 9.59789e-19)
(0.000849623 -3.84358e-06 -9.59666e-19)
(0.000732001 5.16566e-07 -5.69395e-19)
(0.000503113 -6.22976e-05 -5.25827e-19)
(0.00432907 0.00745233 2.47531e-19)
(0.00422327 0.00752967 -2.78795e-19)
(0.00422163 0.00758772 2.66573e-19)
(0.00425571 0.00741042 1.97954e-19)
(0.000845963 -1.66386e-05 1.4391e-19)
(0.00447516 0.00751139 0)
(0.00440291 0.00751648 -3.86699e-19)
(3.6378e-05 -1.79322e-07 -9.98293e-19)
(0.00417075 0.00746941 -6.33612e-20)
(0.00414615 0.00743246 -2.2151e-19)
(0.00602965 0.0106069 0)
(0.0065403 0.0111875 3.71242e-20)
(0.00600968 0.0105766 0)
(0.006556 0.011211 1.30856e-19)
(0.00599701 0.0106009 2.69664e-19)
(0.00659253 0.0112276 1.24617e-20)
(0.00593564 0.0106137 -7.76644e-19)
(0.00662271 0.0111464 8.15596e-21)
(0.00390304 0.00920254 -1.90903e-19)
(0.00418723 0.00748874 3.86842e-21)
(0.00423826 0.00755272 7.93476e-20)
(0.00415053 0.00743466 4.12033e-20)
(0.000863892 0.000186639 4.46896e-20)
(1.33297e-05 1.90998e-06 0)
(0.000681052 -0.000136704 0)
(0.000683745 4.31686e-05 0)
(0.00244148 0.00111307 4.2509e-21)
(0.000748099 -3.06545e-05 1.72651e-19)
(4.35019e-05 6.71716e-06 4.54199e-20)
(1.44663e-05 -3.06122e-05 1.6538e-18)
(0.000843287 1.897e-05 0)
(3.00333e-05 1.40192e-05 -1.91788e-19)
(0.000141986 0.000227484 0)
(2.37038e-05 -1.18476e-06 0)
(1.95382e-05 -1.68282e-06 0)
(0.000810447 0.000130928 1.13628e-20)
(0.000808417 -1.27122e-05 1.7735e-19)
(3.45826e-05 0.000289351 -1.96017e-23)
(0.000159381 0.000276081 -1.84244e-18)
(0.000596453 0.000333078 -8.5725e-20)
(0.000894168 0.000118223 5.99134e-19)
(0.000690381 -0.000289501 6.7351e-19)
(0.000356206 0.00110922 0)
(0.000460765 0.000571804 2.71593e-18)
(9.26917e-05 0.000150529 -1.80345e-18)
(2.88157e-05 2.91111e-07 0)
(0.000817799 -4.76026e-05 3.63499e-20)
(1.83091e-05 3.95422e-05 1.64501e-18)
(0.000900251 2.85615e-05 2.71343e-19)
(1.06708e-05 -6.65864e-05 3.79355e-18)
(0.000929334 3.92923e-05 -2.69153e-19)
(0.00137714 0.000150061 7.47691e-19)
(3.98044e-05 -1.15832e-05 8.25983e-20)
(4.07799e-05 5.29956e-06 -8.59287e-19)
(4.99953e-05 0.000148489 0)
(0.000899804 7.63498e-05 5.98278e-19)
(0.000489931 0.000368982 2.3721e-19)
(0.000712571 1.79006e-05 -3.8916e-20)
(0.000767718 -9.25338e-06 2.5691e-19)
(0.000731925 -0.000205985 0)
(0.0063206 0.0108971 -1.6811e-19)
(0.00637889 0.0109742 4.05793e-19)
(0.00616036 0.010732 -6.18339e-19)
(0.00650117 0.0111324 -8.10009e-20)
(3.71423e-05 0.000122606 8.00785e-19)
(0.000907127 5.8496e-05 1.49584e-22)
(0.00641147 0.0110067 -3.8643e-19)
(0.00628156 0.0108473 5.48225e-19)
(0.00608068 0.0106735 -4.16751e-19)
(0.00652172 0.011165 -6.81478e-20)
(8.30912e-05 0.000525075 -2.01889e-20)
(0.00011843 -0.000202219 -7.93053e-19)
(0.000711769 -1.79708e-05 -7.60159e-19)
(0.000717855 0.000221038 0)
(0.000797991 1.3197e-06 0)
(0.000184328 0.000393011 3.3639e-19)
(0.000595173 0.000527971 -5.41796e-19)
(1.39891e-05 -2.26151e-06 1.78457e-19)
(0.000204675 0.00046562 -7.38596e-19)
(0.00100037 0.000969942 -1.12748e-19)
(0.000734741 0.000167754 0)
(0.000781561 0.000178522 1.31067e-19)
(0.00635646 0.00587379 1.13124e-18)
(0.000738197 0.00112958 8.26889e-20)
(4.14869e-05 4.10347e-05 -7.44941e-20)
(0.000814727 2.59706e-05 0)
(0.000875759 2.58549e-05 -3.57047e-20)
(3.89534e-05 4.43922e-06 -1.96749e-19)
(3.35727e-05 5.89019e-06 1.93046e-19)
(0.000828694 2.31517e-05 5.36914e-19)
(0.000964784 0.000105418 6.58746e-19)
(0.000610128 3.62524e-05 0)
(0.00022002 -0.000313143 -3.96361e-19)
(0.000907103 0.000150736 3.89753e-19)
(2.35614e-05 -7.19024e-05 2.03188e-19)
(0.00143774 0.000420502 -2.58057e-18)
(0.000641408 -3.35864e-06 0)
(0.000784266 0.00014476 3.75609e-19)
(9.27151e-05 0.000402094 0)
(0.00118441 0.00816758 4.62126e-19)
(0.000479369 0.000503007 -1.22484e-18)
(0.000544116 0.00099062 -1.83805e-19)
(0.000873137 2.13084e-05 -1.45958e-19)
(1.55305e-05 2.7942e-05 0)
(0.000929982 7.58512e-05 6.1195e-19)
(0.00410736 0.00739576 8.14294e-20)
(0.00417189 0.00747402 4.73154e-20)
(0.00449855 0.00751381 4.54003e-19)
(0.00444422 0.00754095 -3.28114e-19)
(0.00647495 0.0111092 8.10788e-20)
(0.0039154 0.00714687 -9.56143e-22)
(0.00550683 0.00779426 -5.64677e-19)
(0.00409853 0.00737254 5.21622e-21)
(0.00518693 0.00785452 5.1159e-19)
(0.00408048 0.00734105 -4.86962e-20)
(0.00495202 0.00771407 0)
(0.0040861 0.0073653 -8.56261e-20)
(0.00474069 0.00758565 4.92462e-19)
(0.00409915 0.0073765 8.75109e-20)
(0.00457356 0.00752558 0)
(0.00428353 0.00742006 1.39765e-19)
(0.00423973 0.00759917 5.79833e-19)
(0.00446667 0.0075262 -5.52981e-19)
(0.00438721 0.0075041 3.71307e-19)
(0.00422852 0.00752553 3.2281e-19)
(0.00643042 0.011043 -4.9722e-21)
(0.00411847 0.0074017 3.11615e-20)
(0.00645851 0.0110727 0)
(2.71644e-05 7.29605e-06 -1.89925e-19)
(0.0019958 0.00654199 2.28428e-19)
(0.000843078 -3.08421e-05 1.09726e-19)
(0.000857974 1.44135e-05 0)
(2.52531e-06 2.36517e-06 -3.99249e-19)
(2.64189e-05 -0.000171052 6.91833e-19)
(2.48217e-05 6.07619e-05 2.08967e-18)
(0.000818201 0.000179366 -9.011e-20)
(0.000796217 1.10987e-05 7.06689e-19)
(2.70034e-06 -2.53357e-06 3.10099e-19)
(2.31509e-05 -3.88277e-05 -1.84629e-18)
(0.000757455 2.7869e-05 1.6322e-19)
(0.000860059 0.000126549 -3.07836e-20)
(0.000797617 -9.87016e-06 1.46776e-19)
(0.000402559 0.000673682 0)
(7.99861e-05 -0.000152158 1.15125e-18)
(0.000853774 1.35903e-05 1.52439e-19)
(2.16916e-05 2.62488e-05 0)
(0.0001096 0.000565723 -6.31384e-19)
(0.000604378 0.000600978 1.3183e-18)
(0.000330518 0.000739441 0)
(0.000797746 -1.80004e-05 0)
(0.000796684 6.26397e-06 1.17495e-18)
(2.02699e-05 5.23144e-05 -3.5161e-18)
(1.90437e-05 8.82242e-06 3.7375e-19)
(0.000115285 0.000151095 0)
(5.37597e-05 -4.29374e-05 0)
(6.53231e-05 0.000117407 2.01065e-19)
(0.000924976 0.000180323 3.50564e-19)
(0.000799192 1.51062e-05 -1.3894e-18)
(2.46933e-05 3.62599e-05 0)
(0.000509242 2.33538e-05 -6.03305e-20)
(0.000800342 4.04093e-05 -1.56405e-19)
(0.000831977 2.76196e-05 1.05027e-18)
(0.000257877 0.000544397 6.32409e-19)
(0.000859552 0.000153887 0)
(2.44303e-05 -2.7487e-05 5.38866e-19)
(3.60049e-06 -9.51397e-06 -3.2008e-19)
(0.00102123 2.69154e-05 0)
(0.00103313 0.00224825 0)
(0.000980838 -1.70524e-05 0)
(0.000993334 0.000202233 4.27344e-19)
(0.000813724 -2.72794e-05 -2.83719e-19)
(0.000916618 0.000113614 -6.85037e-19)
(0.000797462 3.51517e-06 0)
(4.3295e-05 7.35364e-05 -1.71623e-19)
(0.000173658 0.00032979 1.08145e-18)
(0.000795828 2.37906e-05 -1.98612e-24)
(0.00107742 0.00020372 -6.69247e-19)
(0.00108937 0.000121066 0)
(3.14925e-06 8.92981e-06 2.51116e-19)
(2.21625e-05 -1.80405e-05 -1.94381e-19)
(0.000610437 3.44812e-05 6.88966e-21)
(2.69499e-05 -9.5397e-05 0)
(0.00104442 0.000250321 9.50246e-19)
(0.00502862 0.00974954 -2.8307e-19)
(0.00311998 0.00962217 1.2721e-18)
(6.28241e-05 -0.000114506 -1.91359e-19)
(6.96938e-05 -7.9264e-05 1.86023e-18)
(0.00119253 0.000234538 1.67187e-19)
(0.00133388 0.00107815 2.34157e-19)
(0.000816359 7.92081e-07 -7.318e-19)
(0.000208251 0.000951527 -2.38665e-19)
(0.000801686 0.000910652 -2.18647e-19)
(0.0007986 -4.53161e-06 0)
(9.03234e-05 0.000647609 0)
(9.6804e-05 0.000285706 -4.32429e-23)
(0.000726535 -3.41344e-05 -1.68781e-23)
(0.000816656 5.22743e-05 1.50725e-19)
(0.00262647 0.00206638 -1.23184e-18)
(0.00175803 0.00924345 -1.1715e-19)
(0.000831122 3.81332e-05 4.92335e-19)
(0.00633096 0.00404009 -1.75858e-19)
(0.00672074 0.0115575 -1.36554e-20)
(0.0047345 0.00784459 4.93419e-21)
(0.000799951 1.68399e-05 -2.18507e-18)
(0.000829685 2.04611e-05 7.31091e-25)
(1.20829e-05 -9.69335e-06 -3.48142e-19)
(4.74956e-05 9.50061e-05 -3.49397e-19)
(7.24362e-05 0.000277775 8.75702e-19)
(1.32107e-05 1.83473e-05 4.90579e-19)
(8.99299e-05 0.000236324 3.69881e-19)
(0.000821877 3.10784e-05 0)
(0.00534777 0.00949203 1.95035e-20)
(0.0015386 0.000618449 -2.61025e-20)
(0.000820272 2.85729e-05 3.55421e-19)
(4.90517e-05 -8.93972e-05 0)
(0.00184595 0.000741341 5.46238e-19)
(1.15492e-05 9.26705e-06 -2.7025e-19)
(3.66447e-05 3.13371e-05 9.72166e-20)
(0.00131582 0.00138479 6.36568e-19)
(0.000737955 4.25539e-05 1.8318e-19)
(8.28343e-06 -2.47797e-06 -1.70266e-19)
(0.00206543 0.00154854 -1.05642e-18)
(0.000126854 0.000184402 -8.19e-19)
(0.00392094 0.00848706 -1.09122e-18)
(7.94368e-06 2.21812e-06 8.81737e-20)
(0.000167154 -0.000197164 -1.25243e-18)
(5.84342e-05 -5.97048e-05 4.05798e-20)
(0.00153265 0.000968967 0)
(0.00103175 0.000140475 -4.15355e-22)
(0.000453576 0.000852113 -4.02323e-20)
(0.000801716 2.45424e-05 -2.33812e-19)
(8.7173e-05 0.000190712 7.36298e-19)
(4.20941e-05 -6.74332e-05 4.04172e-19)
(2.03054e-05 1.7196e-05 -9.47438e-20)
(3.47598e-05 9.87943e-05 -3.20398e-19)
(0.000200631 -0.000314364 -5.41248e-19)
(0.00325079 0.00344954 2.77201e-21)
)
;

boundaryField
{
    back
    {
        type            empty;
    }
    ingreso
    {
        type            fixedValue;
        value           uniform (0.0008 0 0);
    }
    salida
    {
        type            zeroGradient;
    }
    front
    {
        type            empty;
    }
    defaultFaces
    {
        type            noSlip;
    }
}


// ************************************************************************* //
