/*--------------------------------*- C++ -*----------------------------------*\
  =========                 |
  \\      /  F ield         | OpenFOAM: The Open Source CFD Toolbox
   \\    /   O peration     | Website:  https://openfoam.org
    \\  /    A nd           | Version:  7
     \\/     M anipulation  |
\*---------------------------------------------------------------------------*/
FoamFile
{
    version     2.0;
    format      ascii;
    class       surfaceScalarField;
    location    "44.5";
    object      phi;
}
// * * * * * * * * * * * * * * * * * * * * * * * * * * * * * * * * * * * * * //

dimensions      [0 3 -1 0 0 0 0];

internalField   nonuniform List<scalar> 
1111
(
6.34262e-09
1.32719e-08
-1.57031e-08
-3.91143e-09
6.45768e-09
-1.17454e-08
1.16304e-08
-1.46977e-08
4.88729e-09
9.45489e-09
3.55542e-10
3.69235e-10
-4.40804e-10
-1.41424e-08
1.4214e-08
-1.4038e-08
1.38041e-08
6.03081e-10
-1.59627e-09
1.48624e-08
2.16242e-09
-3.96049e-09
9.74645e-09
-1.08372e-08
5.05126e-09
-6.66639e-09
-1.26075e-08
1.25678e-08
6.7061e-09
-5.05904e-08
-2.58476e-08
7.6438e-08
-8.09237e-09
7.54682e-09
7.00323e-09
3.61692e-09
3.4577e-10
-3.69315e-09
-2.69541e-10
1.56061e-08
-1.58281e-08
-2.29625e-08
2.31845e-08
-9.62169e-09
-7.9812e-09
8.79698e-09
8.80591e-09
-3.51343e-08
1.75345e-08
-3.22946e-08
4.98944e-08
9.54079e-09
-1.9273e-09
-1.42799e-08
-2.22669e-09
2.79338e-09
-3.79662e-09
3.22992e-09
-3.7164e-09
1.32425e-08
1.94589e-09
-1.1472e-08
8.86442e-09
-2.2854e-09
-1.5034e-08
8.45502e-09
3.78176e-08
-3.06503e-08
-7.16733e-09
-1.9289e-08
1.79447e-11
1.74984e-08
1.7726e-09
-6.63324e-10
3.98583e-09
-1.79129e-08
1.45904e-08
-6.12228e-08
-3.96541e-09
6.51882e-08
1.71319e-10
-1.33101e-09
-3.76814e-10
1.5365e-09
-1.23376e-09
-1.34675e-08
-1.99829e-10
-3.35149e-10
3.04359e-10
2.30618e-10
-1.00357e-08
-8.12588e-09
1.24614e-08
5.70022e-09
7.54298e-10
-2.16383e-09
-8.48645e-09
9.89599e-09
7.92072e-09
9.84158e-10
-8.78118e-09
-1.23695e-10
-2.83111e-09
-7.80303e-09
1.08417e-08
-2.07569e-10
1.13547e-08
-4.98986e-10
-1.99128e-09
-1.02982e-09
1.00473e-09
9.24096e-11
-6.73135e-11
-3.229e-10
9.0204e-10
4.86031e-10
-1.06517e-09
-6.27631e-10
-4.30797e-11
6.68704e-10
2.00632e-12
2.28137e-11
-1.05019e-09
9.54428e-11
9.3193e-10
-4.73663e-11
-9.59645e-10
7.47652e-10
-1.836e-08
-1.67658e-09
-5.36807e-10
5.92267e-11
-1.50051e-10
1.34059e-08
-1.32953e-08
3.87523e-09
-4.42559e-10
6.54694e-10
4.21515e-10
-6.3365e-10
-5.11105e-10
-2.42365e-09
1.85241e-09
1.08234e-09
-2.13641e-09
9.42924e-09
-1.12533e-08
-4.05915e-10
-2.07042e-10
7.61491e-11
-8.79851e-09
1.00995e-08
-9.39334e-09
1.19168e-08
-1.69815e-08
5.04692e-09
1.77103e-11
9.56776e-11
-2.19029e-10
-2.82564e-10
2.75009e-10
9.16963e-10
-1.87245e-10
-5.97453e-08
7.43461e-08
-1.46007e-08
1.16283e-09
-3.74383e-10
-1.34203e-09
5.53576e-10
1.08937e-09
1.03014e-08
-1.37229e-08
2.33203e-09
-7.96905e-10
6.94477e-09
-8.39928e-09
2.25142e-09
-6.45726e-09
5.79559e-09
5.47594e-09
-4.81427e-09
-7.08484e-09
-2.25516e-09
2.14798e-09
7.19201e-09
-1.86698e-10
-9.09149e-08
9.1302e-08
-2.00401e-10
-2.56226e-10
-8.97582e-08
9.01654e-08
-1.50909e-10
8.30829e-08
-1.50371e-09
1.17393e-10
-8.16966e-08
-3.18746e-09
-1.55586e-10
8.23433e-10
9.29852e-10
-5.90451e-10
4.04632e-09
-1.71365e-09
3.28139e-09
-5.61406e-09
-1.1232e-09
1.02383e-09
-1.49822e-08
6.61011e-09
9.25421e-09
9.87061e-10
-9.94385e-09
-2.97419e-10
-6.30406e-09
1.28875e-08
1.46281e-09
-8.04623e-09
1.42856e-08
-4.06363e-09
3.27526e-09
-1.34972e-08
1.54199e-08
1.74404e-09
-1.73516e-09
-5.97309e-10
-1.98662e-08
-7.14055e-09
2.76041e-08
1.3757e-08
-8.26994e-09
-2.22113e-09
7.64325e-09
-1.17262e-08
-1.18842e-10
2.51171e-10
-1.47436e-09
-3.66502e-08
-2.30952e-08
8.00746e-09
4.3241e-11
3.86615e-09
-6.95442e-09
1.07418e-08
6.31211e-09
-7.00372e-10
4.00055e-10
5.65494e-10
-2.65177e-10
5.935e-09
-4.62496e-09
3.55182e-09
-4.86186e-09
-6.41031e-10
-7.19906e-10
3.10751e-10
8.181e-10
-7.65738e-10
-1.59957e-10
-1.14921e-09
9.86268e-10
-1.75976e-08
2.50344e-09
1.45795e-09
1.36362e-08
3.01255e-10
-8.2445e-10
-1.77178e-10
-3.85729e-09
-1.47845e-08
1.04415e-09
5.67475e-09
1.17667e-08
-5.24131e-09
-1.22002e-08
1.64469e-08
5.60989e-10
-1.59139e-08
-1.09405e-09
-7.85959e-10
5.55728e-10
6.30286e-10
-8.51542e-10
4.5563e-10
3.95912e-10
-7.1175e-09
-3.7831e-09
4.44334e-09
-3.72077e-10
5.41351e-10
-1.69274e-10
1.32332e-09
-1.52163e-08
-7.96059e-10
8.96577e-09
-1.03061e-08
-1.14964e-09
-1.0115e-09
1.25841e-08
4.39607e-09
-4.14312e-09
-1.28371e-08
2.558e-10
6.9699e-09
-7.67124e-09
6.49692e-09
-1.92254e-09
-8.50541e-09
7.82148e-09
2.60646e-09
-1.7786e-09
5.95989e-10
-1.36019e-08
-2.25521e-10
-1.46556e-10
-3.9745e-10
1.17855e-09
-7.86594e-09
7.54086e-10
1.72942e-08
-1.60139e-09
-1.38495e-08
1.50889e-08
-1.23935e-09
1.19854e-08
1.40858e-08
-1.56211e-08
-1.04502e-08
-7.9385e-10
1.35275e-09
-5.58901e-10
1.22998e-09
-1.54583e-09
3.15852e-10
2.05694e-09
-2.86832e-09
8.11383e-10
1.83122e-09
-1.52407e-09
-3.07148e-10
-1.15046e-08
3.95231e-10
1.11094e-08
2.55119e-09
-7.1997e-10
8.87798e-09
-1.51627e-08
6.66068e-09
-7.85503e-09
7.3749e-11
3.95888e-09
-4.15705e-10
-2.89696e-09
2.9707e-09
-7.31558e-09
8.65083e-09
-1.33525e-09
-8.51797e-10
4.11306e-09
7.85058e-10
1.71793e-08
-1.45265e-08
-1.56344e-09
-5.50055e-09
5.17485e-09
-1.38795e-09
-2.525e-10
6.56128e-09
-6.58205e-09
2.0765e-11
7.05315e-09
4.35779e-09
2.1848e-10
-1.58464e-08
1.0419e-08
1.74128e-08
5.68775e-09
8.3353e-09
8.2513e-09
-6.80038e-09
8.70004e-10
-1.23746e-08
1.20854e-09
2.35686e-10
-1.27728e-08
3.41244e-09
-4.41739e-10
1.30954e-08
-1.25344e-08
-1.32549e-10
-1.06445e-09
-1.37197e-08
7.17674e-09
9.1058e-10
-4.59649e-11
-8.92854e-09
5.20982e-09
-3.12476e-08
-1.25503e-08
-2.48911e-09
1.31973e-09
1.38063e-08
1.09578e-08
-1.06401e-08
-1.4124e-08
1.60337e-08
-3.12308e-09
-1.29106e-08
1.73296e-09
3.86059e-09
-1.431e-09
-9.787e-10
-1.02217e-09
1.34701e-09
6.53863e-10
-2.98495e-10
4.2761e-10
4.36379e-10
6.21342e-08
-6.21583e-08
2.41017e-11
6.20558e-08
-6.23577e-08
3.01885e-10
8.33023e-10
6.47498e-08
-6.55783e-08
8.28415e-10
6.4142e-08
6.0783e-10
-2.23459e-10
-6.6528e-08
9.49755e-10
-6.20346e-08
6.19026e-08
1.32051e-10
1.32415e-09
-6.78522e-08
-6.21983e-08
1.63712e-10
1.21337e-08
-1.09847e-09
1.716e-09
-3.73282e-09
3.11529e-09
4.32257e-10
-1.29432e-09
1.13905e-09
-8.10144e-10
1.49367e-09
-1.7687e-09
1.08518e-09
1.55089e-09
-1.71734e-09
4.17623e-10
-1.01116e-10
-3.33083e-09
3.06668e-09
-2.32656e-09
2.59072e-09
-8.38061e-10
-2.87108e-09
2.61068e-09
-3.85216e-09
-5.58707e-09
6.55519e-10
-7.47838e-10
1.44199e-09
1.19073e-09
-6.60805e-09
8.02228e-09
2.94356e-09
2.03252e-08
-4.29153e-09
-8.22992e-10
3.03191e-10
1.17532e-09
-1.01568e-08
-2.64934e-08
5.47702e-09
-4.4792e-09
-3.10353e-09
2.10571e-09
1.35829e-10
1.29885e-11
5.19886e-10
-2.81001e-09
3.51399e-09
8.63898e-09
9.07964e-10
-5.54674e-10
2.22552e-09
-2.50891e-09
2.24576e-09
1.47306e-08
1.31616e-08
-2.69372e-08
3.23864e-08
6.16816e-09
-2.28527e-08
-1.02526e-08
1.80571e-08
-1.76677e-08
1.05684e-08
-2.61096e-10
-2.83396e-11
-1.42791e-09
-1.90576e-09
-2.55034e-09
3.8975e-09
1.47053e-08
-6.05095e-10
-1.35042e-08
-1.10276e-11
-2.8191e-09
-4.09601e-11
1.53555e-08
1.74321e-08
1.35984e-08
7.01654e-10
-1.53651e-09
-1.27635e-08
-1.868e-09
6.00492e-09
1.22539e-08
-7.79444e-10
-1.24465e-09
-3.51678e-09
2.72955e-09
3.85391e-09
2.42078e-09
1.41577e-08
4.12183e-09
-1.38834e-08
1.74878e-08
-1.73831e-09
2.84203e-09
-3.6311e-09
1.88146e-09
-4.55805e-09
1.28541e-08
-1.20124e-08
-1.38879e-08
5.9461e-10
8.73521e-09
-1.91149e-09
1.60957e-09
1.74392e-09
-8.73549e-09
5.48111e-10
-4.36291e-09
-6.03399e-09
1.21736e-08
-1.48751e-08
1.3992e-09
1.65821e-09
-2.16763e-09
1.64214e-08
-1.5912e-08
-9.72565e-10
1.39659e-08
2.78256e-09
-4.06996e-09
-1.38753e-08
7.28725e-09
-1.69901e-08
-7.96487e-09
6.51471e-09
5.84349e-09
1.43191e-08
-9.56308e-09
3.15369e-09
9.01585e-09
9.85094e-09
3.8591e-09
-4.11148e-09
2.14234e-08
-1.87921e-08
4.65599e-09
-1.00792e-08
2.24908e-09
5.41653e-09
1.35292e-08
-7.94416e-11
1.25229e-08
-1.3416e-08
-1.70897e-09
2.44894e-09
-1.57437e-09
8.344e-10
1.07932e-08
-6.37081e-09
7.34429e-09
-1.04828e-08
1.39068e-09
-4.75544e-09
1.12309e-08
-1.17168e-08
-7.46102e-09
8.99242e-09
9.26183e-09
1.26363e-08
9.30972e-10
-1.36467e-08
1.69502e-09
8.42718e-10
-1.08834e-08
-6.7188e-09
1.01412e-08
-1.73578e-09
2.5245e-09
-8.79918e-09
4.76225e-09
-5.12161e-09
1.12837e-08
-3.48964e-09
-1.14597e-08
3.66565e-09
-4.52501e-09
1.10532e-08
2.10418e-09
1.20041e-09
-5.07112e-09
-1.7468e-08
1.03928e-08
1.21463e-08
8.65635e-10
-1.07682e-08
-9.7124e-09
1.54095e-08
1.22515e-08
2.7319e-09
-9.56688e-09
-1.32037e-08
-2.73671e-10
-1.25289e-08
2.54527e-10
-6.58263e-10
1.12455e-08
1.23971e-08
-8.1296e-09
1.62289e-08
-1.55817e-08
3.47465e-09
-4.62171e-10
1.67598e-09
1.24224e-08
-3.86114e-09
-1.24821e-08
-5.11879e-09
8.2641e-10
4.52807e-09
1.19261e-08
-7.40849e-09
7.79838e-10
-1.24403e-09
1.55472e-09
-2.01967e-09
6.10918e-09
2.58826e-08
-5.09244e-10
-1.20265e-08
1.25357e-08
2.81371e-08
-2.201e-08
2.19637e-08
1.92744e-08
-1.25558e-08
-2.61222e-09
1.48398e-08
1.65949e-10
-1.20723e-08
-2.90672e-10
-6.02329e-09
-1.96353e-09
2.38157e-09
1.68615e-09
2.84317e-11
-1.07909e-08
1.09632e-08
-2.00788e-10
2.6434e-09
-5.51077e-09
-1.06174e-08
1.02814e-08
-7.25509e-10
-1.04156e-08
-3.68491e-11
-1.06325e-08
-2.85546e-09
-1.18284e-08
2.2741e-09
7.7698e-09
5.08234e-09
1.37967e-10
-1.15336e-08
1.14241e-08
6.73524e-10
-8.49479e-09
5.26689e-09
-9.76135e-10
2.67171e-09
-3.08933e-09
-1.29553e-08
-1.321e-08
1.28387e-08
-1.00906e-08
-1.58191e-08
1.00633e-08
9.05577e-09
8.54939e-10
2.58755e-09
-1.4614e-08
1.09263e-08
1.70978e-09
4.03505e-09
3.75865e-10
-6.18335e-10
-3.98561e-10
-4.03159e-09
2.69428e-09
-1.48179e-09
3.40618e-10
-3.97886e-10
5.72685e-11
-2.52891e-09
1.2639e-08
2.14143e-09
2.55803e-09
-8.91469e-10
-1.78968e-09
-1.44411e-10
-2.55329e-09
-6.64303e-10
1.26763e-08
9.79148e-09
-4.84375e-10
7.07943e-09
-1.19435e-09
-5.40071e-09
-9.64665e-09
-5.08944e-09
2.65663e-10
7.49543e-11
4.6964e-09
1.35146e-09
-1.6816e-08
-5.81285e-10
-9.18066e-10
-2.4326e-09
8.71038e-10
2.64945e-09
6.19319e-08
-9.22831e-11
-6.18396e-08
6.23482e-08
1.92913e-10
-6.25411e-08
-1.41876e-08
6.39826e-11
1.45461e-08
-4.22525e-10
2.74617e-09
-2.05448e-09
2.78918e-09
1.7898e-09
-4.37376e-09
-4.97898e-10
-6.39684e-10
5.18717e-10
-1.44211e-10
6.05039e-10
-4.36216e-10
1.90935e-08
1.12193e-09
-1.55191e-08
-2.97581e-10
-1.96161e-09
1.21683e-08
2.21577e-09
1.7488e-09
5.16959e-09
-1.86561e-09
-7.72328e-08
-2.41732e-08
-4.78705e-09
1.57157e-08
2.31388e-09
-7.00115e-10
-3.33497e-09
-1.35521e-09
6.76941e-10
-5.6639e-10
-1.19353e-08
-3.08824e-10
1.22441e-08
-1.06449e-08
-6.65998e-09
1.05861e-08
-9.28036e-09
8.81648e-09
-1.06542e-10
1.85536e-09
1.14121e-08
-1.11734e-08
-2.38782e-10
7.38722e-10
6.8126e-11
9.87466e-09
1.05173e-09
-1.13089e-09
-3.30861e-10
-1.42331e-08
-5.23125e-10
-1.34504e-08
1.21894e-08
-1.15107e-08
-6.59934e-08
6.49476e-08
1.04578e-09
4.49899e-10
-4.36911e-10
1.16742e-08
-4.1603e-10
1.81437e-11
-1.98414e-09
2.77261e-09
-3.38559e-09
-1.35239e-08
-1.67729e-09
2.57958e-09
-4.72289e-09
-1.38287e-08
1.73554e-09
5.61495e-09
9.44342e-09
-8.76838e-09
-4.45666e-10
2.96354e-11
-9.35296e-09
-1.28174e-08
1.4986e-10
-6.2711e-08
2.34699e-10
6.24763e-08
6.96329e-10
6.34457e-08
-2.26408e-10
-1.0178e-09
-1.43584e-08
1.07045e-10
-6.33816e-08
6.32746e-08
1.8568e-10
-6.29272e-08
6.27415e-08
5.24119e-10
6.18106e-08
1.55874e-10
-6.19665e-08
6.16442e-08
1.66439e-10
-8.7899e-08
8.85082e-08
-1.39252e-12
9.33842e-08
-9.30922e-08
-2.67865e-10
-8.66383e-08
-4.32259e-10
9.33495e-08
-1.88764e-10
-8.49231e-08
-7.65484e-10
9.34821e-08
1.69263e-10
-5.16058e-10
1.95737e-09
9.23577e-08
-6.93559e-08
6.21569e-08
-6.23436e-08
-6.29672e-08
6.15012e-08
1.43014e-10
-2.98679e-09
2.73703e-09
-1.36336e-08
8.18286e-11
1.83834e-10
2.16973e-09
9.36961e-09
-1.1655e-08
3.82355e-08
-3.44399e-08
-1.65684e-08
1.38323e-08
-7.81404e-11
-2.20861e-10
2.81624e-10
9.0643e-10
-1.77312e-10
3.97533e-10
4.64639e-09
1.03774e-09
-3.80267e-09
-3.7568e-10
4.34906e-10
-2.99531e-10
-2.43021e-09
1.28156e-08
2.25362e-09
-1.44511e-08
-2.40199e-09
-3.65398e-09
5.68242e-09
1.06968e-09
-2.53863e-09
1.41562e-08
-1.22476e-09
-3.75511e-09
5.45363e-09
-8.06914e-09
-1.90751e-08
-1.30887e-08
7.6906e-09
5.99267e-09
-3.11724e-10
-5.22124e-10
3.21542e-09
1.43809e-08
1.93917e-09
-1.45768e-09
-4.69458e-10
5.10513e-10
-2.93555e-10
1.59797e-08
-4.68041e-10
-1.58205e-08
-3.03904e-09
-2.05596e-09
2.90346e-10
-2.24502e-10
3.85994e-09
-1.76091e-08
6.2188e-10
-1.69159e-09
-2.31328e-09
-2.38237e-09
1.52532e-08
-9.05965e-08
-1.32698e-10
9.16853e-08
-1.9035e-10
-8.91727e-08
-4.78504e-10
9.3099e-08
-2.74088e-10
-9.29171e-08
-6.23392e-10
-1.78817e-09
1.62431e-08
9.1991e-08
-1.96475e-10
3.18285e-11
-2.19628e-10
1.05967e-08
2.34745e-09
-9.07058e-09
-1.19123e-08
-5.65194e-09
8.46616e-09
1.38625e-09
-6.90885e-09
-6.3139e-09
9.04661e-09
-2.03854e-10
1.01614e-08
1.92962e-08
-1.76922e-08
3.02859e-09
-1.24618e-08
3.00828e-09
-6.99745e-08
3.98104e-09
-2.03329e-08
-1.28822e-08
-5.92029e-10
-5.88263e-09
-1.53686e-08
9.17897e-09
-1.52217e-08
5.61883e-10
4.74939e-10
-1.5467e-09
-1.61867e-08
1.67508e-08
8.71504e-09
-8.87062e-09
-5.40989e-09
1.50123e-08
-1.68299e-09
8.2682e-10
-1.41768e-09
4.86944e-10
1.21309e-08
3.3923e-09
7.09538e-08
-1.7983e-08
9.14373e-10
-1.46979e-08
-2.95858e-10
-3.42875e-10
-1.68021e-10
6.09691e-08
-6.12432e-08
-6.33498e-08
-6.31237e-08
-6.29454e-11
-2.57972e-10
-9.25962e-08
-6.04621e-08
6.24195e-08
6.5065e-08
-6.02929e-08
6.4549e-08
-6.04816e-08
6.37835e-08
-6.07495e-08
6.33512e-08
9.23211e-08
3.72581e-10
-6.46351e-09
7.50719e-08
-6.52161e-08
9.88603e-11
-9.88603e-11
1.61766e-09
-3.73125e-10
1.54956e-08
-1.10103e-10
1.10103e-10
4.67825e-10
1.55354e-09
1.38753e-08
1.3063e-08
-2.76978e-09
3.74727e-09
6.33516e-09
1.94545e-09
4.52571e-10
-3.2082e-10
-2.91126e-09
1.44022e-08
1.48212e-08
-4.28472e-09
1.17323e-08
2.53257e-10
2.01152e-10
2.95383e-09
-9.98425e-10
-1.73627e-09
-5.93476e-09
-1.434e-10
-4.74635e-10
1.52464e-08
3.50887e-10
1.45698e-10
1.58365e-08
-2.5843e-08
1.73132e-08
2.5829e-09
1.45237e-09
2.30513e-09
-3.60342e-09
1.90306e-08
-1.77323e-08
-1.26661e-10
7.5059e-10
-1.44573e-09
-7.92051e-08
-7.08016e-08
1.45341e-09
-1.01352e-09
7.17033e-10
2.2846e-08
1.84139e-08
-6.48249e-09
1.3684e-10
-4.46787e-09
-2.22025e-09
2.99224e-08
1.52166e-10
1.48133e-08
7.3579e-08
9.37518e-11
5.58819e-10
-2.11568e-10
-2.77864e-10
-3.84583e-09
2.42647e-08
-1.48032e-08
1.19048e-09
-1.40032e-08
-8.49728e-11
2.01875e-08
-2.86754e-08
8.99958e-10
2.41459e-09
-6.12253e-10
)
;

boundaryField
{
    back
    {
        type            empty;
        value           nonuniform 0();
    }
    ingreso
    {
        type            calculated;
        value           nonuniform List<scalar> 
14
(
-1.54286e-08
-1.54288e-08
-1.54288e-08
-1.54288e-08
-1.54286e-08
-1.54283e-08
-1.54288e-08
-1.54288e-08
-1.54286e-08
-1.54286e-08
-1.54288e-08
-1.5428e-08
-1.5428e-08
-1.54286e-08
)
;
    }
    salida
    {
        type            calculated;
        value           nonuniform List<scalar> 2(1.01406e-07 1.14594e-07);
    }
    front
    {
        type            empty;
        value           nonuniform 0();
    }
    defaultFaces
    {
        type            calculated;
        value           uniform 0;
    }
}


// ************************************************************************* //
