/*--------------------------------*- C++ -*----------------------------------*\
  =========                 |
  \\      /  F ield         | OpenFOAM: The Open Source CFD Toolbox
   \\    /   O peration     | Website:  https://openfoam.org
    \\  /    A nd           | Version:  7
     \\/     M anipulation  |
\*---------------------------------------------------------------------------*/
FoamFile
{
    version     2.0;
    format      ascii;
    class       volVectorField;
    location    "44.5";
    object      U;
}
// * * * * * * * * * * * * * * * * * * * * * * * * * * * * * * * * * * * * * //

dimensions      [0 1 -1 0 0 0 0];

internalField   nonuniform List<vector> 
591
(
(0.000816802 -3.65487e-05 1.21847e-18)
(0.000800134 -3.12581e-05 -6.62991e-19)
(0.000854469 -3.88866e-05 5.6995e-20)
(0.000846019 4.62812e-07 -1.49231e-19)
(0.000829356 1.34518e-05 2.25226e-19)
(0.000796976 -3.87453e-05 -1.3903e-19)
(0.000545622 -0.000349789 8.05571e-19)
(0.000799266 8.51938e-07 2.06685e-18)
(0.00574373 0.00249064 9.87813e-19)
(0.000789121 -1.64978e-05 2.43797e-18)
(5.40458e-05 0.000175407 1.21859e-18)
(0.000910396 0.00135293 9.40893e-21)
(0.000795076 8.47751e-06 1.29813e-18)
(0.00159762 0.00237395 -7.87893e-19)
(0.000801545 7.72063e-06 -4.38099e-19)
(9.69138e-05 -0.000235097 2.54455e-22)
(0.000133117 0.000674348 7.05376e-19)
(0.000822189 4.00089e-05 -4.90251e-19)
(0.00194834 0.000379205 4.72957e-19)
(0.0013522 0.00026492 -2.47283e-19)
(0.000832479 2.3815e-06 3.72219e-19)
(0.00340017 0.00656068 -8.1417e-20)
(3.18817e-05 7.40254e-05 2.71068e-19)
(0.000830322 -2.2945e-06 -4.51066e-19)
(1.53247e-05 -1.99837e-05 3.59114e-19)
(0.000760284 2.79646e-05 0)
(9.12319e-05 0.000478933 1.60026e-19)
(0.000525064 2.27932e-05 -1.78937e-19)
(0.000748463 5.1043e-05 1.15016e-18)
(0.000817947 2.7e-05 5.8469e-19)
(6.34451e-05 -2.10537e-06 -3.70258e-24)
(4.07403e-05 -5.10794e-05 3.5236e-19)
(4.25222e-05 -3.68094e-06 -4.64178e-20)
(5.10877e-05 -1.09974e-05 0)
(5.99547e-05 -1.37989e-05 1.13196e-18)
(0.00116987 0.000128171 1.79978e-19)
(3.65882e-05 -6.45532e-06 4.47378e-20)
(0.00082631 1.36316e-05 3.5846e-23)
(3.1182e-05 4.79584e-05 2.66163e-19)
(3.82701e-05 -0.000129865 -8.55083e-19)
(0.000595266 -0.000199383 9.59076e-19)
(2.99994e-05 -8.33938e-06 4.55059e-20)
(0.000793429 -4.68982e-06 -1.5716e-18)
(0.000825744 2.87344e-05 -6.82037e-19)
(2.11583e-05 -9.97662e-06 0)
(5.98956e-05 9.33909e-06 8.52301e-20)
(0.00133322 0.00451445 8.93347e-19)
(8.17581e-05 2.0252e-05 8.6405e-20)
(0.000795838 2.07136e-05 0)
(0.000371427 -0.000172494 6.78151e-19)
(0.000374551 0.000278342 5.12139e-21)
(0.00038763 6.31275e-05 -1.0043e-18)
(0.00634727 0.0109417 -7.68452e-19)
(0.00622461 0.0107965 1.52929e-20)
(0.00561326 0.0103801 1.45592e-18)
(0.000810689 1.20966e-05 0)
(7.14632e-05 3.51829e-05 0)
(0.000319778 2.68369e-05 1.00873e-23)
(6.82843e-05 1.34733e-05 -3.46631e-19)
(0.000820946 -7.79798e-06 0)
(0.000619383 2.76808e-05 3.1774e-19)
(0.000822512 -1.86141e-06 2.21287e-18)
(0.000784895 1.31136e-05 -5.46072e-19)
(0.000795467 1.87733e-05 -3.15933e-19)
(0.00172012 0.000469504 5.42903e-19)
(0.000789064 3.14496e-06 -1.15472e-18)
(0.000820197 3.31345e-06 -5.24309e-19)
(8.86068e-05 1.23894e-06 -1.73498e-19)
(0.00068212 0.00228025 0)
(0.000823927 2.52176e-05 0)
(0.000764496 1.56446e-05 -1.38465e-18)
(4.15747e-05 1.82694e-05 0)
(0.000284236 0.000275069 3.26986e-19)
(4.65355e-05 -1.90382e-05 0)
(4.70423e-05 -6.45386e-06 1.59553e-19)
(2.52382e-05 -5.17609e-05 -3.3685e-20)
(0.000776661 6.97501e-05 2.47237e-19)
(4.8312e-05 1.27065e-05 0)
(0.000790105 5.69669e-05 4.47284e-19)
(0.000758866 0.000296559 2.1083e-19)
(0.000964569 5.97845e-05 -3.9816e-20)
(4.66242e-05 2.60002e-05 -4.52088e-20)
(6.98366e-06 -3.38284e-05 0)
(0.000425189 0.000221637 1.70263e-19)
(2.66622e-06 2.89068e-05 0)
(0.000770476 2.93581e-05 -6.09736e-19)
(0.000577135 -0.000119048 0)
(7.09829e-05 8.75652e-07 -1.74566e-19)
(5.05856e-06 -4.58116e-05 0)
(0.000816965 0.000246746 -3.41442e-19)
(4.90364e-06 -2.06575e-05 0)
(0.000417011 0.000324656 -1.27387e-23)
(0.000517546 0.000115274 0)
(0.000796658 4.93872e-05 -3.65756e-24)
(3.0378e-06 1.89935e-05 -4.21925e-20)
(0.000441286 -8.38146e-07 1.76447e-18)
(0.00102295 7.30317e-05 4.16257e-20)
(0.000893655 4.20051e-05 6.40916e-22)
(0.000729927 0.000656544 2.69621e-19)
(5.93697e-06 5.79675e-05 0)
(5.79235e-06 -7.90815e-05 -3.12532e-19)
(-2.36553e-07 -0.000149026 -1.09936e-18)
(2.85948e-06 9.07321e-05 -5.96386e-19)
(0.000665055 -1.21931e-05 0)
(6.60713e-06 0.000116841 0)
(0.000796627 1.38953e-05 2.21439e-18)
(0.000773066 2.02848e-05 1.52484e-18)
(0.000408556 -5.28028e-05 0)
(4.78234e-05 0.000226682 -8.95563e-19)
(-1.30841e-06 0.000188408 4.96549e-19)
(7.09238e-05 0.000438011 6.25233e-19)
(0.000299358 9.80704e-05 -9.37504e-19)
(0.000803377 1.677e-05 1.36747e-19)
(0.000264237 -2.03159e-05 5.31487e-19)
(3.75701e-06 4.0104e-05 0)
(2.88446e-05 0.000303729 -1.09407e-18)
(0.00031553 0.000327801 -1.61772e-19)
(5.62171e-06 -6.20826e-05 1.46655e-19)
(0.000665129 0.00080681 0)
(0.000362523 0.000391722 5.74661e-20)
(0.000807887 4.22719e-06 1.07141e-18)
(0.00079443 -2.14002e-06 -2.68552e-18)
(8.33398e-06 -9.70258e-05 0)
(0.000705513 -2.43443e-05 -1.12383e-19)
(0.000319337 -8.21881e-05 1.24388e-18)
(0.00266235 0.000793025 -3.35942e-19)
(2.32524e-06 0.000148049 -6.13222e-19)
(-1.64797e-06 0.000180928 1.61943e-18)
(0.000771241 1.9361e-05 -3.89629e-20)
(6.9702e-05 -1.04156e-05 -7.50547e-19)
(0.000795646 2.34664e-05 -3.89378e-19)
(0.000819047 2.65313e-05 -4.10192e-20)
(4.71558e-05 0.000351969 -5.96826e-19)
(0.000474335 7.74298e-05 -4.94168e-19)
(5.41819e-05 -2.51026e-06 1.56233e-19)
(0.000822358 1.33495e-05 -1.07977e-18)
(0.00159275 0.000225148 -1.13634e-18)
(2.76189e-06 7.22268e-05 4.96477e-19)
(0.000804131 1.31086e-05 -4.96145e-19)
(0.000893592 0.000539257 -7.85469e-20)
(0.000134722 0.000814501 0)
(0.000566484 6.66672e-05 0)
(0.000272742 6.14622e-05 -1.61046e-18)
(6.65493e-05 6.28532e-05 -1.37477e-18)
(3.36133e-05 2.28543e-05 0)
(0.00424663 0.00740001 -1.02016e-20)
(0.00422512 0.00737173 3.16488e-20)
(0.00442708 0.00757487 -4.99404e-21)
(0.00420692 0.00773583 0)
(0.00419952 0.00760092 5.77233e-19)
(0.00424409 0.00740091 -9.19454e-20)
(0.00421025 0.00804423 4.84375e-19)
(0.00428913 0.00742069 0)
(0.00420793 0.00853843 6.16705e-19)
(0.00432636 0.00744879 2.23965e-19)
(0.00081207 -2.00457e-06 -1.37138e-18)
(0.000757466 5.00016e-05 0)
(0.000216994 6.32611e-05 1.27746e-19)
(5.43339e-05 1.84057e-05 8.72281e-20)
(8.16614e-05 4.93763e-05 6.80352e-19)
(0.000110291 4.67088e-05 -3.41834e-19)
(0.000105698 1.06127e-05 0)
(5.2693e-05 6.51584e-06 8.18754e-20)
(0.000204913 0.000141032 0)
(0.000169097 5.18913e-05 -5.24499e-20)
(0.000338724 0.000228268 -5.09477e-21)
(5.90176e-05 4.6756e-05 -4.37871e-19)
(9.5094e-05 3.22807e-05 -8.52892e-20)
(9.37472e-05 6.68993e-05 1.31258e-21)
(0.000250292 0.000370642 -6.66457e-19)
(0.000113235 0.00102933 0)
(4.46589e-05 5.62976e-05 3.4323e-19)
(0.000207781 0.00176942 0)
(0.000206737 0.000258356 7.0497e-19)
(4.26305e-05 -4.79978e-06 1.11469e-19)
(0.000473195 0.000168014 -1.72381e-19)
(0.000749982 2.7783e-05 -1.92513e-18)
(4.70297e-05 -6.35437e-07 4.17481e-24)
(0.000153516 3.22932e-05 2.24696e-19)
(0.000241444 0.000101909 -8.99753e-20)
(0.00087896 0.000710347 3.35085e-19)
(0.000725096 0.00162529 -9.23264e-21)
(0.00038112 0.0014284 -9.39756e-21)
(0.00101834 0.000555353 0)
(0.000109628 -1.20495e-05 1.1193e-18)
(0.000121787 2.28174e-05 -4.43372e-20)
(0.000436605 -0.000277285 -1.13614e-18)
(0.000804598 3.11075e-05 0)
(0.000184452 1.58832e-05 3.63464e-19)
(0.000300397 0.00132795 0)
(0.00105213 0.000762015 -7.30525e-20)
(0.000822897 3.79709e-05 -1.86296e-19)
(8.5164e-05 -1.92774e-05 -3.00139e-19)
(0.000814421 0.00031875 -2.08151e-20)
(6.66806e-05 -2.17663e-05 -5.99815e-19)
(0.000226061 0.000181358 8.64261e-20)
(0.000227412 0.000311943 -3.45162e-19)
(0.000874991 0.000241878 0)
(0.00080306 4.7301e-05 0)
(0.000260287 0.000146456 1.76927e-19)
(0.000234759 1.32131e-05 2.78961e-24)
(0.000184534 0.000211229 0)
(0.000284503 0.000653621 -5.55934e-21)
(0.000336935 1.09005e-05 0)
(0.000352793 0.000601436 0)
(0.000112393 8.83107e-05 -1.34735e-21)
(0.000810286 1.51e-05 -9.33749e-19)
(0.000810929 1.23437e-05 7.7718e-19)
(0.000132174 6.44927e-05 -1.49928e-19)
(0.000945708 0.000153292 8.51153e-20)
(0.000828801 4.65455e-05 3.32937e-19)
(0.00080657 2.01516e-05 -2.94282e-19)
(0.00100253 0.000406154 0)
(0.000430905 0.000125784 6.24742e-19)
(0.000887662 0.000316922 2.09242e-20)
(0.000563023 0.000161766 0)
(0.000271938 0.000444961 4.09811e-19)
(0.000259933 0.000223154 -8.4455e-20)
(0.00109287 0.000375613 -7.823e-19)
(0.000607873 0.000110754 -1.79385e-19)
(0.000797045 7.50742e-05 -7.4604e-21)
(0.00083019 2.87503e-05 9.36636e-20)
(9.49651e-05 -8.94605e-05 -1.98235e-18)
(0.00073038 0.000382106 2.19335e-19)
(0.000652563 6.22787e-05 2.30714e-20)
(0.000696455 0.000277352 1.5823e-23)
(0.00071988 0.000455101 -4.0976e-19)
(0.000837171 3.82469e-05 9.06851e-20)
(7.4847e-05 8.56724e-05 0)
(0.000646489 0.00041637 -4.65933e-20)
(0.000184798 0.000103837 0)
(0.000371435 0.00050331 -2.64943e-19)
(0.00030931 0.000174864 0)
(0.000665188 0.000202573 3.55409e-19)
(0.000638615 0.000263117 -4.37467e-20)
(8.27605e-05 0.000108 6.19458e-19)
(0.000873001 9.47686e-05 -1.63086e-18)
(6.18683e-05 2.50683e-05 2.5732e-19)
(0.000873592 5.58862e-05 -1.66679e-18)
(0.000828505 8.05268e-05 1.61888e-19)
(0.000802333 2.49461e-05 1.9096e-18)
(0.000800301 2.40745e-05 -1.30728e-19)
(0.000721704 7.40324e-05 0)
(0.000806606 3.12406e-05 8.93312e-19)
(0.000942096 0.000229984 -4.27327e-19)
(0.00075767 8.47993e-05 -4.83873e-19)
(0.000770825 0.000227013 -8.81685e-20)
(0.000229265 -0.000134685 -2.08041e-18)
(0.000729518 8.5568e-05 8.86804e-19)
(0.000636223 0.00059683 0)
(0.000113877 -0.000107295 0)
(0.00119937 0.000469387 4.97343e-19)
(0.00070691 -7.47135e-05 -3.23448e-18)
(0.00132158 0.00043085 5.75924e-19)
(0.00123469 0.000718961 -6.38908e-20)
(0.000797973 3.81052e-05 -2.11366e-19)
(0.000824688 6.97012e-05 -1.42457e-18)
(0.000812886 1.78346e-05 1.55876e-18)
(0.000812804 2.9816e-05 9.62283e-20)
(0.00066465 0.000347828 -4.40611e-20)
(0.000104307 0.000131763 5.80327e-24)
(0.000731929 -5.38595e-05 2.65242e-19)
(0.000233318 -0.000228634 -7.34663e-19)
(0.000610137 0.000189485 0)
(0.000691265 3.25737e-05 9.90941e-20)
(0.00066963 1.02406e-05 -3.81016e-19)
(0.00038233 0.000176522 3.93543e-20)
(0.000793758 0.000499835 -1.65548e-19)
(0.000152386 8.31928e-05 2.65772e-25)
(0.000805383 0.000401827 0)
(0.000967534 0.000321658 4.15983e-20)
(0.000738749 -8.77542e-05 -6.16631e-19)
(0.000341968 0.000112813 4.98016e-19)
(0.000898087 0.000420809 0)
(5.29012e-05 3.44807e-05 1.33777e-19)
(0.000473588 0.000271824 2.14047e-19)
(0.000467468 -0.000120565 -7.09649e-19)
(0.000162563 -0.000143899 -1.05956e-18)
(0.000816312 2.1897e-05 -4.76701e-19)
(0.00079276 -0.000107968 -1.93904e-19)
(0.000559748 0.00072451 -1.17488e-18)
(0.000835415 4.52267e-05 -6.71024e-20)
(0.000697395 -2.95444e-05 1.26129e-18)
(0.000681552 9.90097e-05 2.27903e-20)
(0.000519286 0.000215198 -1.65759e-19)
(3.75629e-05 -2.39444e-05 -8.76264e-20)
(0.000183237 -3.19394e-05 2.40729e-18)
(2.4776e-05 9.13659e-07 -1.94916e-19)
(0.000806044 0.000101403 3.62574e-19)
(0.000644731 0.000138565 0)
(0.000197264 -6.55807e-05 -1.04858e-18)
(0.000127921 -8.79487e-06 3.13058e-19)
(0.000122347 -3.26753e-05 4.15744e-24)
(0.000786811 0.000111021 -3.19357e-19)
(0.000157909 -5.98995e-06 0)
(0.000574935 0.000243661 0)
(0.00011116 0.000336011 -3.63008e-19)
(0.000849073 9.86472e-05 2.11074e-18)
(2.01972e-05 1.51162e-06 0)
(0.000864057 4.8396e-05 0)
(5.006e-05 -2.65527e-05 0)
(0.000812389 3.64176e-05 -4.46286e-21)
(0.000797851 -5.85309e-05 0)
(0.00425901 0.00740577 8.07105e-20)
(0.00436233 0.0074853 1.43862e-19)
(0.000842428 2.55439e-06 0)
(0.000769097 -5.56795e-05 8.12509e-19)
(0.000153593 0.000131923 1.49276e-19)
(0.0008437 7.42756e-05 8.02549e-19)
(0.000132746 0.00010849 2.34505e-20)
(0.00076544 -3.70987e-05 6.26005e-19)
(3.83413e-05 1.1259e-05 0)
(3.35761e-05 -1.56731e-05 -4.48703e-20)
(0.000880825 5.1036e-05 -4.85906e-19)
(4.09028e-05 -3.46983e-05 -6.70091e-19)
(0.000744587 0.000118854 -4.23462e-20)
(0.000167926 0.000169445 -1.88183e-19)
(0.000811329 1.93613e-05 0)
(0.00468162 0.00815335 8.98241e-22)
(0.000168874 0.000784891 3.33746e-19)
(0.00013007 -5.10302e-05 -9.14968e-19)
(6.95509e-05 -3.51745e-05 -1.1693e-18)
(0.000708564 1.66041e-05 1.89936e-20)
(0.000575127 0.000412691 0)
(0.000408816 0.000438199 -2.5644e-19)
(0.000100254 -5.52508e-05 1.18421e-18)
(0.000665919 1.8983e-06 7.65675e-20)
(4.61856e-05 2.45831e-06 4.07281e-19)
(0.000670469 -5.89479e-05 1.1723e-18)
(0.000807597 3.01369e-05 -5.9768e-19)
(7.95109e-05 -5.54172e-05 1.70995e-18)
(0.000839908 -7.87829e-06 -4.7136e-24)
(0.000684811 8.54607e-06 -3.76721e-20)
(0.000858349 6.2574e-05 0)
(0.000823693 3.23769e-05 0)
(0.00592036 0.0072375 2.59224e-19)
(2.59675e-05 -7.07686e-07 -1.19623e-19)
(0.000155228 -8.69661e-05 7.73274e-19)
(0.00071268 0.00012163 -6.96815e-19)
(2.96986e-05 -4.9158e-07 2.01567e-19)
(0.000589943 -2.87768e-05 -7.24215e-19)
(0.000729845 3.24166e-05 1.55891e-18)
(0.000693249 0.000157171 -3.55615e-19)
(0.000806453 -1.45761e-05 3.55877e-19)
(8.83753e-05 -3.0869e-05 1.11659e-18)
(0.000794512 9.16646e-06 -3.20914e-19)
(0.000857567 4.61946e-05 0)
(0.000531891 0.000303029 4.21211e-20)
(0.000844038 4.73046e-05 -9.35875e-19)
(2.61624e-05 1.08619e-06 9.11457e-19)
(0.000839792 4.48976e-05 9.5578e-19)
(0.000846512 -8.37819e-06 -9.59249e-19)
(0.000724272 2.46024e-06 -5.69511e-19)
(0.000497113 -5.85976e-05 -5.25925e-19)
(0.00432914 0.0074519 2.47954e-19)
(0.00422413 0.00752998 -2.78833e-19)
(0.00422197 0.00758762 2.66795e-19)
(0.00425522 0.00741024 1.97951e-19)
(0.000846122 -1.22976e-05 1.44149e-19)
(0.00447565 0.00751139 0)
(0.00440308 0.00751638 -3.86639e-19)
(3.91e-05 -2.09632e-07 -9.98433e-19)
(0.0041709 0.00747019 -6.33717e-20)
(0.00414659 0.00743335 -2.21561e-19)
(0.00602924 0.0106062 0)
(0.00654029 0.0111879 3.71057e-20)
(0.00600907 0.010576 0)
(0.00655596 0.0112111 1.30756e-19)
(0.00599616 0.0106003 2.69718e-19)
(0.00659219 0.0112273 1.2471e-20)
(0.00593471 0.0106134 -7.76767e-19)
(0.00662236 0.0111462 8.17777e-21)
(0.00390249 0.00920313 -1.90945e-19)
(0.00418781 0.00748958 3.85916e-21)
(0.00423887 0.00755307 7.93564e-20)
(0.00415095 0.00743538 4.12115e-20)
(0.000858989 0.00018424 4.4698e-20)
(1.45828e-05 2.08008e-06 0)
(0.00067284 -0.000142015 0)
(0.000694775 4.03193e-05 0)
(0.00243903 0.00111618 4.23695e-21)
(0.000744818 -2.95554e-05 1.7269e-19)
(4.46877e-05 7.09596e-06 4.54281e-20)
(1.61472e-05 -3.16372e-05 1.65336e-18)
(0.000840851 2.0152e-05 0)
(3.08755e-05 1.45618e-05 -1.91823e-19)
(0.000142865 0.0002289 0)
(2.60597e-05 -1.2406e-06 0)
(2.15488e-05 -1.80103e-06 0)
(0.000805762 0.00012821 1.13576e-20)
(0.00080934 -1.00287e-05 1.77651e-19)
(3.397e-05 0.000295876 -1.90707e-23)
(0.000160033 0.000277002 -1.84274e-18)
(0.000594636 0.000334644 -8.57393e-20)
(0.000892815 0.000123352 5.9992e-19)
(0.000698292 -0.000320268 6.73056e-19)
(0.000348091 0.0011111 0)
(0.000457653 0.000568999 2.71632e-18)
(9.37587e-05 0.000151977 -1.80368e-18)
(3.14543e-05 3.62069e-07 0)
(0.000816612 -4.24332e-05 3.62288e-20)
(1.90374e-05 4.07483e-05 1.64531e-18)
(0.00089965 2.74406e-05 2.71408e-19)
(2.27545e-05 -9.67365e-05 3.78767e-18)
(0.000928262 3.94976e-05 -2.69209e-19)
(0.00138553 0.00014543 7.47874e-19)
(4.14401e-05 -1.18946e-05 8.26134e-20)
(4.21411e-05 5.93571e-06 -8.59419e-19)
(4.95716e-05 0.0001507 0)
(0.000896317 7.70376e-05 5.98017e-19)
(0.000488511 0.000369429 2.37248e-19)
(0.000732379 1.77334e-05 -3.89073e-20)
(0.000763166 -1.11706e-05 2.56818e-19)
(0.000727676 -0.000213774 0)
(0.00632066 0.0108967 -1.68141e-19)
(0.00637923 0.0109736 4.05829e-19)
(0.00615999 0.0107312 -6.18422e-19)
(0.00650075 0.0111325 -8.10227e-20)
(3.82299e-05 0.000123476 8.00924e-19)
(0.000901996 5.80477e-05 1.51996e-22)
(0.00641074 0.0110064 -3.86478e-19)
(0.00628115 0.0108467 5.48273e-19)
(0.00607996 0.0106731 -4.16813e-19)
(0.00652156 0.0111645 -6.81598e-20)
(8.47906e-05 0.000533744 -2.01935e-20)
(0.000132161 -0.000199311 -7.93056e-19)
(0.000728184 -1.53636e-05 -7.6003e-19)
(0.000715574 0.000220985 0)
(0.000795723 1.66946e-06 0)
(0.000184126 0.000393421 3.36444e-19)
(0.000595206 0.000534719 -5.41789e-19)
(1.55951e-05 -2.46743e-06 1.7849e-19)
(0.00020617 0.000465012 -7.38714e-19)
(0.00100054 0.000972158 -1.12765e-19)
(0.000731961 0.000168806 0)
(0.000779259 0.000176039 1.31092e-19)
(0.00636045 0.00587337 1.13086e-18)
(0.000733932 0.00113379 8.27251e-20)
(4.24021e-05 4.19752e-05 -7.45076e-20)
(0.000815425 3.13193e-05 0)
(0.000875343 2.49717e-05 -3.57119e-20)
(4.03452e-05 4.87861e-06 -1.96774e-19)
(3.47423e-05 6.33098e-06 1.93074e-19)
(0.000826455 2.327e-05 5.36109e-19)
(0.000962836 0.000104556 6.58874e-19)
(0.000627839 3.64054e-05 0)
(0.000219607 -0.000314764 -3.97163e-19)
(0.000903112 0.000149797 3.8983e-19)
(2.74145e-05 -7.51802e-05 2.03225e-19)
(0.00143671 0.000402222 -2.58286e-18)
(0.000659253 -2.3269e-06 0)
(0.000782083 0.000144257 3.7568e-19)
(9.21181e-05 0.000404189 0)
(0.0011828 0.00816897 4.62092e-19)
(0.000475218 0.00050446 -1.22481e-18)
(0.000544016 0.000984038 -1.83832e-19)
(0.000870238 2.24038e-05 -1.45893e-19)
(1.63894e-05 2.87463e-05 0)
(0.000924638 7.50934e-05 6.12072e-19)
(0.00410833 0.00739713 8.14395e-20)
(0.00417247 0.00747506 4.73372e-20)
(0.00449909 0.00751411 4.54072e-19)
(0.00444453 0.00754105 -3.27851e-19)
(0.00647487 0.0111081 8.11021e-20)
(0.00391474 0.00714705 -9.47779e-22)
(0.00550838 0.00779457 -5.64723e-19)
(0.00409798 0.00737298 5.21331e-21)
(0.00518806 0.00785499 5.1164e-19)
(0.00408038 0.00734219 -4.86738e-20)
(0.00495279 0.00771404 0)
(0.00408726 0.00736713 -8.55878e-20)
(0.00474152 0.00758608 4.92541e-19)
(0.00409976 0.0073773 8.75092e-20)
(0.00457415 0.00752559 0)
(0.0042829 0.00741918 1.39786e-19)
(0.00424006 0.00759916 5.80302e-19)
(0.00446711 0.00752621 -5.52649e-19)
(0.00438723 0.00750406 3.71334e-19)
(0.00422928 0.00752617 3.22844e-19)
(0.00643053 0.0110418 -4.96964e-21)
(0.00411942 0.00740265 3.11661e-20)
(0.00645775 0.0110722 0)
(2.81366e-05 7.80087e-06 -1.89959e-19)
(0.0019911 0.00654036 2.28497e-19)
(0.000844255 -2.42425e-05 1.09916e-19)
(0.000857704 1.5939e-05 0)
(2.86475e-06 2.75104e-06 -3.99321e-19)
(3.9222e-05 -0.000181527 6.91933e-19)
(2.48092e-05 6.20339e-05 2.09003e-18)
(0.000815086 0.000180582 -9.01131e-20)
(0.000793483 1.17277e-05 7.06846e-19)
(3.14855e-06 -3.03996e-06 3.10156e-19)
(2.44856e-05 -4.03636e-05 -1.84656e-18)
(0.000754666 2.74907e-05 1.63256e-19)
(0.00085663 0.000127826 -3.07645e-20)
(0.000793501 -9.56736e-06 1.46809e-19)
(0.000401572 0.000669457 0)
(9.23122e-05 -0.000152811 1.1514e-18)
(0.000850277 1.51042e-05 1.52394e-19)
(2.22561e-05 2.70103e-05 0)
(0.000107713 0.000566711 -6.31476e-19)
(0.000604514 0.000602109 1.31849e-18)
(0.000333573 0.000735302 0)
(0.000794609 -1.78638e-05 0)
(0.000793482 9.90418e-06 1.16862e-18)
(2.12582e-05 5.30914e-05 -3.51671e-18)
(1.98126e-05 9.37822e-06 3.73817e-19)
(0.000114853 0.000152772 0)
(5.6494e-05 -4.35118e-05 0)
(6.66635e-05 0.000118925 2.011e-19)
(0.00092018 0.000177383 3.5063e-19)
(0.000798332 1.26676e-05 -1.38823e-18)
(2.52841e-05 3.724e-05 0)
(0.000528255 3.08471e-05 -6.0307e-20)
(0.000798964 3.95995e-05 -1.56439e-19)
(0.000829057 2.41385e-05 1.04058e-18)
(0.000257157 0.000545391 6.32508e-19)
(0.000853128 0.000152217 0)
(2.63729e-05 -2.87275e-05 5.38963e-19)
(3.91975e-06 -1.08774e-05 -3.20139e-19)
(0.00103928 2.39815e-05 0)
(0.00103315 0.00223879 0)
(0.000998037 -2.41301e-05 0)
(0.000989721 0.000199694 4.27425e-19)
(0.000812853 -2.42608e-05 -2.81475e-19)
(0.000911524 0.000116129 -6.85168e-19)
(0.000794719 4.20226e-06 0)
(4.36744e-05 7.49726e-05 -1.71654e-19)
(0.000173439 0.000330445 1.08163e-18)
(0.000794222 2.71593e-05 5.25781e-24)
(0.00107364 0.00020016 -6.69059e-19)
(0.00108784 0.000119619 0)
(3.335e-06 9.91806e-06 2.51161e-19)
(2.3353e-05 -1.89363e-05 -1.94416e-19)
(0.000626113 3.28847e-05 6.8894e-21)
(3.27908e-05 -0.000100165 0)
(0.00103864 0.000248872 9.50326e-19)
(0.00502805 0.00974862 -2.83233e-19)
(0.00311914 0.00962255 1.27237e-18)
(6.97287e-05 -0.000116895 -1.91402e-19)
(7.42683e-05 -8.05583e-05 1.86058e-18)
(0.00119134 0.000230528 1.67059e-19)
(0.00133629 0.00107374 2.34194e-19)
(0.000819094 2.14141e-06 -7.32871e-19)
(0.000212249 0.000949214 -2.38849e-19)
(0.000796114 0.000901656 -2.18679e-19)
(0.000796639 -5.37651e-06 0)
(9.29532e-05 0.000657933 0)
(9.72913e-05 0.000286488 -4.47813e-23)
(0.000732015 -3.06111e-05 -1.69989e-23)
(0.000813127 4.54439e-05 1.50902e-19)
(0.00262238 0.00206303 -1.23198e-18)
(0.00175706 0.00924386 -1.17175e-19)
(0.000828968 3.39214e-05 4.86277e-19)
(0.006337 0.00403839 -1.75771e-19)
(0.00672018 0.0115569 -1.36734e-20)
(0.00473318 0.00784387 4.94064e-21)
(0.000799656 2.03832e-05 -2.17469e-18)
(0.000826878 2.54212e-05 -1.42511e-24)
(1.31696e-05 -1.04182e-05 -3.48206e-19)
(4.78492e-05 9.6563e-05 -3.49459e-19)
(7.4869e-05 0.000279918 8.75948e-19)
(1.3957e-05 1.90471e-05 4.90667e-19)
(9.01695e-05 0.000238064 3.69943e-19)
(0.000821251 3.30558e-05 0)
(0.0053477 0.00949272 1.94862e-20)
(0.0015447 0.000610742 -2.61317e-20)
(0.000820625 2.64136e-05 3.55905e-19)
(5.36969e-05 -9.1472e-05 0)
(0.00184301 0.000747779 5.46248e-19)
(1.22488e-05 9.85036e-06 -2.70298e-19)
(3.75165e-05 3.22522e-05 9.7234e-20)
(0.00131261 0.00137887 6.36604e-19)
(0.000741061 3.96325e-05 1.83221e-19)
(9.47325e-06 -2.75802e-06 -1.70297e-19)
(0.0020623 0.00154662 -1.0566e-18)
(0.000127186 0.000185945 -8.19135e-19)
(0.0039209 0.00848457 -1.09126e-18)
(8.84868e-06 2.45024e-06 8.81895e-20)
(0.000179518 -0.000229955 -1.25046e-18)
(6.13714e-05 -6.02237e-05 4.05873e-20)
(0.00152937 0.000967316 0)
(0.00102777 0.000141447 -4.1834e-22)
(0.000451771 0.000853481 -4.02386e-20)
(0.000801262 2.27483e-05 -2.34186e-19)
(8.71567e-05 0.000192323 7.36421e-19)
(4.54634e-05 -6.90871e-05 4.0425e-19)
(2.09235e-05 1.7823e-05 -9.47608e-20)
(3.59248e-05 0.000100744 -3.20453e-19)
(0.000199234 -0.000330059 -5.40942e-19)
(0.00324646 0.0034439 2.80067e-21)
)
;

boundaryField
{
    back
    {
        type            empty;
    }
    ingreso
    {
        type            fixedValue;
        value           uniform (0.0008 0 0);
    }
    salida
    {
        type            zeroGradient;
    }
    front
    {
        type            empty;
    }
    defaultFaces
    {
        type            noSlip;
    }
}


// ************************************************************************* //
