/*--------------------------------*- C++ -*----------------------------------*\
  =========                 |
  \\      /  F ield         | OpenFOAM: The Open Source CFD Toolbox
   \\    /   O peration     | Website:  https://openfoam.org
    \\  /    A nd           | Version:  7
     \\/     M anipulation  |
\*---------------------------------------------------------------------------*/
FoamFile
{
    version     2.0;
    format      ascii;
    class       surfaceScalarField;
    location    "26.5";
    object      phi;
}
// * * * * * * * * * * * * * * * * * * * * * * * * * * * * * * * * * * * * * //

dimensions      [0 3 -1 0 0 0 0];

internalField   nonuniform List<scalar> 
1111
(
6.09872e-09
1.33738e-08
-1.54172e-08
-4.05529e-09
6.25532e-09
-1.15647e-08
1.14081e-08
-1.45575e-08
4.51962e-09
9.71967e-09
3.18225e-10
2.20892e-10
-2.63066e-10
-1.40074e-08
1.40495e-08
-1.39104e-08
1.3719e-08
4.1226e-10
-1.42743e-09
1.48544e-08
2.00154e-09
-4.06183e-09
9.60369e-09
-1.12016e-08
5.65978e-09
-6.56391e-09
-1.25282e-08
1.249e-08
6.60206e-09
-5.11121e-08
-2.5552e-08
7.6664e-08
-8.0691e-09
7.47078e-09
6.85364e-09
3.72073e-09
3.59242e-10
-3.79278e-09
-2.87187e-10
1.57836e-08
-1.58071e-08
-2.27057e-08
2.27291e-08
-9.62894e-09
-8.21081e-09
8.90882e-09
8.93093e-09
-3.48996e-08
1.7268e-08
-3.18303e-08
4.9462e-08
9.57151e-09
-1.88137e-09
-1.4254e-08
-3.20483e-09
3.40886e-09
-3.63705e-09
3.43301e-09
-3.70378e-09
1.31026e-08
1.98288e-09
-1.13817e-08
8.88889e-09
-2.1166e-09
-1.50341e-08
8.26177e-09
3.84995e-08
-3.13571e-08
-7.14242e-09
-1.91451e-08
-1.42924e-10
1.76002e-08
1.68781e-09
-4.18524e-10
3.8296e-09
-1.79893e-08
1.45783e-08
-6.10213e-08
-3.98944e-09
6.50107e-08
1.99158e-10
-1.38448e-09
-4.03842e-10
1.58916e-09
-1.03414e-09
-1.32948e-08
-2.47253e-10
-3.59898e-10
3.46048e-10
2.61103e-10
-9.94497e-09
-8.05209e-09
1.22949e-08
5.70218e-09
8.3635e-10
-2.20463e-09
-8.5204e-09
9.88868e-09
7.71852e-09
1.06861e-09
-8.48807e-09
-2.99066e-10
-2.76778e-09
-7.75814e-09
1.06889e-08
-1.6297e-10
1.12721e-08
-2.96676e-10
-2.08652e-09
-1.09983e-09
1.06629e-09
1.29931e-10
-9.63947e-11
-4.09789e-10
9.69318e-10
5.81738e-10
-1.14127e-09
-6.89472e-10
-4.61048e-11
7.33476e-10
2.10087e-12
3.83568e-11
-1.13497e-09
8.65774e-11
1.01004e-09
-2.78143e-11
-1.03366e-09
6.13095e-10
-1.81364e-08
-1.62176e-09
-5.97602e-10
6.98484e-11
-1.61718e-10
1.33168e-08
-1.33146e-08
3.82738e-09
-4.80828e-10
6.92913e-10
4.65398e-10
-6.77483e-10
-7.71276e-10
-2.64039e-09
2.00993e-09
1.40174e-09
-2.02863e-09
8.68394e-09
-1.07171e-08
-4.59286e-10
-2.29578e-10
9.12614e-11
-8.79225e-09
1.00164e-08
-9.29326e-09
1.16919e-08
-1.67363e-08
5.1533e-09
-1.08903e-10
1.14847e-10
-2.45981e-10
-3.28152e-10
3.12963e-10
9.7047e-10
-2.17139e-10
-5.98865e-08
7.43633e-08
-1.44769e-08
1.21356e-09
-4.21646e-10
-1.41269e-09
6.20773e-10
9.69674e-10
1.02814e-08
-1.36513e-08
2.40021e-09
-3.6597e-10
6.6224e-09
-7.99464e-09
1.73821e-09
-6.36129e-09
5.83404e-09
5.41344e-09
-4.8862e-09
-6.8747e-09
-2.42759e-09
2.27463e-09
7.02767e-09
-2.28891e-10
-9.0881e-08
9.13012e-08
-1.91315e-10
-2.30871e-10
-8.97429e-08
9.01288e-08
-1.55042e-10
8.30631e-08
-1.49788e-09
1.04993e-10
-8.16703e-08
-3.29728e-09
1.18451e-11
8.84891e-10
9.68674e-10
-6.40006e-10
4.11177e-09
-1.89631e-09
3.25376e-09
-5.46922e-09
-1.18697e-09
1.07828e-09
-1.49911e-08
6.57324e-09
9.05599e-09
1.02515e-09
-9.74726e-09
-3.33878e-10
-6.25595e-09
1.26623e-08
1.53429e-09
-7.94069e-09
1.41731e-08
-3.87817e-09
3.16622e-09
-1.34612e-08
1.53862e-08
1.68828e-09
-1.64569e-09
-2.31178e-10
-1.99411e-08
-7.53866e-09
2.7711e-08
1.35299e-08
-8.14908e-09
-2.30567e-09
7.52564e-09
-1.14759e-08
-1.63318e-10
3.28073e-10
-1.57744e-09
-3.72961e-08
-2.25904e-08
7.8728e-09
-1.00051e-10
3.91914e-09
-6.79851e-09
1.06028e-08
6.21212e-09
-7.43786e-10
4.32795e-10
6.02368e-10
-2.91377e-10
5.97917e-09
-4.565e-09
3.51467e-09
-4.92884e-09
-7.16464e-10
-7.53113e-10
3.34604e-10
8.81097e-10
-8.40624e-10
-2.40006e-10
-1.2598e-09
1.09002e-09
-1.7299e-08
2.46415e-09
1.41998e-09
1.34149e-08
3.32839e-10
-8.75422e-10
-2.01203e-10
-3.65513e-09
-1.46597e-08
1.0158e-09
5.66702e-09
1.16125e-08
-5.2473e-09
-1.20323e-08
1.63705e-08
5.50775e-10
-1.58425e-08
-1.07876e-09
-8.31079e-10
5.95658e-10
6.68217e-10
-1.06787e-09
5.8335e-10
4.84523e-10
-6.99181e-09
-3.86439e-09
4.49492e-09
-4.54379e-10
6.48371e-10
-1.93992e-10
1.32067e-09
-1.49208e-08
-6.7862e-10
8.60747e-09
-9.95748e-09
-1.22035e-09
-1.30788e-09
1.24445e-08
4.40356e-09
-4.17038e-09
-1.26777e-08
3.36098e-10
6.90515e-09
-7.58367e-09
6.51257e-09
-2.0299e-09
-8.31559e-09
7.67163e-09
2.67386e-09
-1.79356e-09
5.95122e-10
-1.34613e-08
-2.827e-10
-1.71679e-10
-6.02455e-10
1.3443e-09
-7.61655e-09
8.02053e-10
1.7176e-08
-1.60761e-09
-1.48971e-08
1.60693e-08
-1.17219e-09
1.18164e-08
1.39994e-08
-1.55893e-08
-1.02265e-08
-9.24637e-10
1.53476e-09
-6.10119e-10
1.6433e-09
-2.13324e-09
4.89939e-10
2.90451e-09
-4.29051e-09
1.386e-09
2.06401e-09
-1.73391e-09
-3.301e-10
-1.22103e-08
2.26547e-10
1.19838e-08
2.82366e-09
-7.59646e-10
8.81902e-09
-1.50029e-08
6.39752e-09
-7.36594e-09
1.15559e-10
4.05733e-09
-4.52165e-10
-3.18291e-09
3.29847e-09
-7.85386e-09
9.23059e-09
-1.37673e-09
-9.65029e-10
4.06101e-09
1.01578e-09
1.70055e-08
-1.45182e-08
-1.5176e-09
-5.29324e-09
5.08591e-09
-1.68897e-09
-2.76265e-10
7.01751e-09
-6.99558e-09
-2.19288e-11
7.08237e-09
4.31024e-09
3.3542e-10
-1.55787e-08
1.0263e-08
1.71321e-08
5.67238e-09
8.31515e-09
8.19558e-09
-6.72832e-09
6.24111e-10
-1.28344e-08
1.4993e-09
-1.7014e-10
-1.26125e-08
3.73829e-09
-4.39827e-10
1.4095e-08
-1.35442e-08
-7.97485e-11
-1.16842e-09
-1.35481e-08
7.03293e-09
9.75295e-10
-6.16515e-11
-8.95668e-09
5.35357e-09
-3.15883e-08
-1.25592e-08
-2.27214e-09
1.28327e-09
1.36135e-08
1.1009e-08
-1.06824e-08
-1.39401e-08
1.66663e-08
-3.1094e-09
-1.35569e-08
1.80901e-09
3.80965e-09
-1.52092e-09
-1.0132e-09
-1.08028e-09
1.41469e-09
6.78789e-10
-3.24307e-10
4.59108e-10
4.67566e-10
6.21346e-08
-6.22538e-08
1.1918e-10
6.19035e-08
-6.22706e-08
3.67092e-10
8.82191e-10
6.47913e-08
-6.56174e-08
8.26123e-10
6.41872e-08
6.04097e-10
-1.35977e-10
-6.65543e-08
9.36805e-10
-6.21705e-08
6.21063e-08
6.41427e-11
1.31788e-09
-6.78721e-08
-6.22434e-08
7.2884e-11
1.19912e-08
-1.23677e-09
1.86922e-09
-3.75419e-09
3.12174e-09
4.7223e-10
-1.339e-09
1.21069e-09
-8.85448e-10
1.53825e-09
-1.82658e-09
1.17378e-09
1.60368e-09
-1.77901e-09
5.034e-10
-1.17266e-10
-3.29832e-09
3.15314e-09
-2.43414e-09
2.57932e-09
-9.64784e-10
-2.93361e-09
2.66162e-09
-3.95438e-09
-5.49682e-09
6.83606e-10
-7.9521e-10
1.52148e-09
1.22746e-09
-6.62417e-09
8.01021e-09
2.92419e-09
2.09596e-08
-4.29327e-09
-8.58493e-10
3.05997e-10
1.2361e-09
-1.02252e-08
-2.70709e-08
5.50888e-09
-4.5334e-09
-3.07752e-09
2.10205e-09
1.41378e-10
4.60867e-12
5.87489e-10
-2.89291e-09
3.57273e-09
8.54685e-09
9.60823e-10
-6.58514e-10
2.26867e-09
-2.57494e-09
2.38056e-09
1.45851e-08
1.30278e-08
-2.6523e-08
3.20815e-08
6.11128e-09
-2.24727e-08
-1.01616e-08
1.78386e-08
-1.74872e-08
1.06576e-08
-3.20303e-10
4.56624e-11
-1.50436e-09
-1.9817e-09
-2.00985e-09
3.61891e-09
1.45301e-08
-5.51481e-10
-1.33835e-08
1.89192e-10
-2.96344e-09
-1.59359e-10
1.51241e-08
1.72996e-08
1.34701e-08
7.61268e-10
-1.52904e-09
-1.27023e-08
-1.97749e-09
5.96498e-09
1.21465e-08
-8.89432e-10
-1.31265e-09
-3.50081e-09
2.73089e-09
3.92306e-09
2.39938e-09
1.40173e-08
4.13946e-09
-1.37532e-08
1.71874e-08
-1.64149e-09
2.94076e-09
-3.69732e-09
1.8948e-09
-4.47132e-09
1.27215e-08
-1.19539e-08
-1.3721e-08
6.11424e-10
8.63822e-09
-1.95053e-09
1.65215e-09
1.81987e-09
-8.85541e-09
4.77596e-10
-4.18143e-09
-5.94549e-09
1.20568e-08
-1.49667e-08
1.49192e-09
1.64087e-09
-2.10077e-09
1.62113e-08
-1.57514e-08
-9.67587e-10
1.38862e-08
2.56347e-09
-3.81132e-09
-1.3755e-08
7.24108e-09
-1.6799e-08
-7.9293e-09
6.41465e-09
5.82247e-09
1.41598e-08
-9.37535e-09
3.18915e-09
8.86006e-09
9.77975e-09
3.90285e-09
-4.08329e-09
2.13224e-08
-1.86725e-08
4.59116e-09
-9.86862e-09
2.30228e-09
5.22129e-09
1.33861e-08
-8.04127e-11
1.23575e-08
-1.32447e-08
-1.61602e-09
2.65358e-09
-1.84471e-09
8.07148e-10
1.06806e-08
-6.32199e-09
7.25392e-09
-1.02576e-08
1.41416e-09
-4.75566e-09
1.11009e-08
-1.15925e-08
-7.39928e-09
8.86178e-09
9.21812e-09
1.24651e-08
9.88098e-10
-1.35336e-08
1.76909e-09
8.73072e-10
-1.07834e-08
-6.73283e-09
1.01169e-08
-1.83776e-09
2.52535e-09
-8.6127e-09
4.67149e-09
-5.0969e-09
1.11614e-08
-3.49253e-09
-1.1318e-08
3.64917e-09
-4.5425e-09
1.09482e-08
2.18657e-09
1.23466e-09
-4.95116e-09
-1.74641e-08
1.0405e-08
1.20102e-08
9.10509e-10
-1.06259e-08
-9.61582e-09
1.52906e-08
1.20299e-08
2.69052e-09
-9.49911e-09
-1.31698e-08
-2.53546e-10
-1.23687e-08
3.26555e-10
-6.04891e-10
1.09672e-08
1.23605e-08
-8.02462e-09
1.60346e-08
-1.53332e-08
3.43807e-09
-4.95161e-10
1.63364e-09
1.22764e-08
-3.85722e-09
-1.23454e-08
-5.12569e-09
4.72279e-10
4.48328e-09
1.18226e-08
-7.51423e-09
7.86692e-10
-1.09534e-09
1.85531e-09
-2.37599e-09
5.96243e-09
2.60175e-08
-7.88341e-10
-1.30864e-08
1.38747e-08
2.76768e-08
-2.18573e-08
2.1933e-08
1.92086e-08
-1.24315e-08
-2.52603e-09
1.47707e-08
1.02816e-10
-1.19287e-08
-3.37236e-10
-6.00451e-09
-2.00871e-09
2.44939e-09
1.74589e-09
2.22157e-10
-1.06351e-08
1.06507e-08
-2.37785e-10
2.12881e-09
-5.5163e-09
-1.0467e-08
1.01637e-08
-6.2122e-10
-1.02413e-08
-7.44947e-12
-1.0361e-08
-2.94655e-09
-1.16908e-08
2.31578e-09
7.70967e-09
5.05809e-09
3.09085e-10
-1.13881e-08
1.13011e-08
7.10956e-10
-8.37161e-09
5.28285e-09
-6.91857e-10
2.79265e-09
-3.41572e-09
-1.28681e-08
-1.3407e-08
1.29277e-08
-9.8454e-09
-1.57617e-08
1.00285e-08
8.99502e-09
8.36487e-10
2.56796e-09
-1.56543e-08
1.07e-08
1.68139e-09
4.06119e-09
4.0628e-10
-6.53853e-10
-4.6889e-10
-4.00637e-09
2.75092e-09
-1.70799e-09
4.22089e-10
-4.92573e-10
7.04845e-11
-2.4502e-09
1.24319e-08
2.04815e-09
2.53525e-09
-1.21207e-09
-1.91941e-09
-1.66212e-11
-2.63447e-09
-7.89306e-10
1.25695e-08
9.68234e-09
-5.5313e-10
7.15802e-09
-1.18266e-09
-5.42224e-09
-9.69469e-09
-5.07884e-09
3.30902e-10
9.11867e-11
4.47522e-09
1.43087e-09
-1.6532e-08
-6.70253e-10
-9.72292e-10
-2.1039e-09
7.53823e-10
2.53477e-09
6.21268e-08
-6.04731e-11
-6.20664e-08
6.23587e-08
1.7508e-10
-6.25337e-08
-1.41333e-08
1.43194e-10
1.44811e-08
-4.9101e-10
2.55478e-09
-2.12694e-09
2.86701e-09
1.78529e-09
-4.42308e-09
-6.09522e-10
-6.82935e-10
5.54096e-10
-1.62537e-10
6.67737e-10
-4.91035e-10
1.87351e-08
1.11791e-09
-1.53778e-08
-3.54787e-10
-1.96227e-09
1.20502e-08
2.18846e-09
1.74902e-09
4.99071e-09
-1.74024e-09
-7.74701e-08
-2.41283e-08
-4.83033e-09
1.55895e-08
2.34344e-09
-9.06566e-10
-3.43589e-09
-1.43913e-09
7.87662e-10
-6.61179e-10
-1.29447e-08
-3.11452e-10
1.32562e-08
-1.0561e-08
-6.67381e-09
1.0502e-08
-9.18664e-09
8.88908e-09
-2.32124e-10
1.97914e-09
1.24247e-08
-1.21269e-08
-2.97787e-10
7.90524e-10
5.30334e-11
9.50056e-09
1.14271e-09
-1.2558e-09
-4.15452e-10
-1.41698e-08
-5.19977e-10
-1.32638e-08
1.19504e-08
-1.13286e-08
-6.60402e-08
6.496e-08
1.08024e-09
5.51716e-10
-5.47107e-10
1.15418e-08
-5.16097e-10
2.3524e-11
-1.85742e-09
2.75902e-09
-3.36409e-09
-1.35084e-08
-1.63611e-09
2.5467e-09
-4.60969e-09
-1.37334e-08
1.81115e-09
5.61732e-09
9.34788e-09
-8.69185e-09
-5.44818e-10
2.87206e-11
-9.3633e-09
-1.24562e-08
1.15293e-10
-6.2793e-08
2.32337e-10
6.25607e-08
6.88541e-10
6.34987e-08
-1.26901e-10
-7.80491e-10
-1.4261e-08
1.22712e-10
-6.33562e-08
6.32335e-08
1.73687e-10
-6.28987e-08
6.27251e-08
5.94387e-10
6.17384e-08
2.00943e-10
-6.19394e-08
6.15303e-08
2.08137e-10
-8.786e-08
8.84712e-08
-7.13361e-12
9.34786e-08
-9.31511e-08
-2.08327e-10
-8.66051e-08
-4.28772e-10
9.3469e-08
-1.2633e-10
-8.48997e-08
-7.6859e-10
9.35808e-08
2.5528e-10
-5.18671e-10
2.02437e-09
9.24386e-08
-6.937e-08
6.21653e-08
-6.23941e-08
-6.30239e-08
6.13342e-08
1.96057e-10
-2.99706e-09
2.66119e-09
-1.34173e-08
9.71323e-11
2.3377e-10
2.48637e-09
9.95655e-09
-1.20732e-08
3.82718e-08
-3.44888e-08
-1.63955e-08
1.40011e-08
-9.36132e-11
-2.14975e-10
3.39601e-10
9.73695e-10
-1.98241e-10
4.2803e-10
4.69257e-09
1.06547e-09
-3.86324e-09
-4.75158e-10
5.45006e-10
-3.83896e-10
-2.39481e-09
1.26482e-08
2.1785e-09
-1.44225e-08
-2.23642e-09
-3.81041e-09
5.69737e-09
1.09725e-09
-2.37816e-09
1.40127e-08
-1.22954e-09
-4.69694e-09
7.37e-09
-7.82416e-09
-1.89418e-08
-1.28803e-08
7.63016e-09
5.86156e-09
-3.25424e-10
-5.15775e-10
3.29059e-09
1.43262e-08
1.69497e-09
-1.16672e-09
-4.94042e-10
5.30286e-10
-3.12509e-10
1.58894e-08
-4.53971e-10
-1.57469e-08
-4.76419e-09
-2.73115e-09
2.8808e-10
-2.41172e-10
4.38206e-09
-1.83702e-08
6.76141e-10
-1.74448e-09
-2.37372e-09
-2.24277e-09
1.51552e-08
-9.05408e-08
-1.66543e-10
9.17022e-08
-2.25895e-10
-8.91454e-08
-4.74798e-10
9.31065e-08
-2.79093e-10
-9.28879e-08
-6.64678e-10
-1.83945e-09
1.60383e-08
9.20185e-08
-1.79689e-10
1.43919e-11
-1.71537e-10
1.12135e-08
2.12196e-09
-9.98995e-09
-1.18006e-08
-5.55404e-09
8.454e-09
1.3843e-09
-6.9141e-09
-6.51078e-09
9.11349e-09
-2.6905e-10
1.01522e-08
1.91048e-08
-1.76123e-08
3.00871e-09
-1.23632e-08
3.02648e-09
-7.00898e-08
4.04956e-09
-2.03197e-08
-1.25476e-08
-6.28365e-10
-5.74871e-09
-1.53921e-08
9.21216e-09
-1.51489e-08
6.06052e-10
5.13999e-10
-1.45696e-09
-1.60309e-08
1.6593e-08
9.67172e-09
-9.65988e-09
-5.53444e-09
1.47728e-08
-1.59007e-09
8.29994e-10
-1.54463e-09
6.20244e-10
1.21177e-08
3.42153e-09
7.09418e-08
-1.78809e-08
9.65613e-10
-1.45322e-08
-3.22307e-10
-3.65727e-10
-2.33766e-10
6.07669e-08
-6.1046e-08
-6.33418e-08
-6.30784e-08
-3.99615e-11
-2.88222e-10
-9.25597e-08
-6.0516e-08
6.25404e-08
6.5065e-08
-6.02607e-08
6.45463e-08
-6.03871e-08
6.37777e-08
-6.05954e-08
6.33489e-08
9.22995e-08
4.06945e-10
-6.57423e-09
7.49687e-08
-6.49729e-08
1.32742e-10
-1.32742e-10
2.17862e-09
-3.85566e-10
1.5481e-08
-1.54117e-10
1.54117e-10
5.20257e-10
1.40992e-09
1.40189e-08
1.28289e-08
-2.62765e-09
3.63384e-09
6.42298e-09
1.92459e-09
4.82573e-10
-3.45772e-10
-2.86979e-09
1.43141e-08
1.48025e-08
-4.3234e-09
1.15414e-08
2.8193e-10
2.22148e-10
3.0154e-09
-1.05173e-09
-1.80374e-09
-5.91699e-09
-1.40881e-10
-5.07418e-10
1.51922e-08
3.90968e-10
1.81981e-10
1.66824e-08
-2.54085e-08
1.7107e-08
2.54241e-09
1.51105e-09
2.13256e-09
-3.49259e-09
1.88879e-08
-1.75278e-08
-1.49958e-10
9.55242e-10
-1.44064e-09
-7.91494e-08
-7.08107e-08
1.48162e-09
-1.189e-09
7.40349e-10
2.27886e-08
1.82492e-08
-6.46168e-09
1.92903e-10
-4.51789e-09
-1.94573e-09
2.99878e-08
1.31121e-10
1.49297e-08
7.35195e-08
1.14932e-10
5.80384e-10
-2.33e-10
-3.04406e-10
-3.90458e-09
2.37877e-08
-1.47172e-08
1.24786e-09
-1.39203e-08
-1.01028e-10
2.01092e-08
-2.81166e-08
9.01182e-10
2.60581e-09
-7.26836e-10
)
;

boundaryField
{
    back
    {
        type            empty;
        value           nonuniform 0();
    }
    ingreso
    {
        type            calculated;
        value           nonuniform List<scalar> 
14
(
-1.54286e-08
-1.54288e-08
-1.54288e-08
-1.54288e-08
-1.54286e-08
-1.54283e-08
-1.54288e-08
-1.54288e-08
-1.54286e-08
-1.54286e-08
-1.54288e-08
-1.5428e-08
-1.5428e-08
-1.54286e-08
)
;
    }
    salida
    {
        type            calculated;
        value           nonuniform List<scalar> 2(1.01598e-07 1.14402e-07);
    }
    front
    {
        type            empty;
        value           nonuniform 0();
    }
    defaultFaces
    {
        type            calculated;
        value           uniform 0;
    }
}


// ************************************************************************* //
