/*--------------------------------*- C++ -*----------------------------------*\
  =========                 |
  \\      /  F ield         | OpenFOAM: The Open Source CFD Toolbox
   \\    /   O peration     | Website:  https://openfoam.org
    \\  /    A nd           | Version:  7
     \\/     M anipulation  |
\*---------------------------------------------------------------------------*/
FoamFile
{
    version     2.0;
    format      ascii;
    class       volScalarField;
    location    "25.5";
    object      p;
}
// * * * * * * * * * * * * * * * * * * * * * * * * * * * * * * * * * * * * * //

dimensions      [0 2 -2 0 0 0 0];

internalField   nonuniform List<scalar> 
591
(
0.00012398
0.000123995
0.000124011
0.000123974
0.000123976
0.000124068
0.000124035
0.000124008
0.000116949
0.000124008
0.000124164
0.000122878
0.000124044
0.000119764
0.00012401
0.000124047
0.000123928
0.000124043
0.000122008
0.000123391
0.000123975
-3.54103e-06
0.000124163
0.000123977
0.000124121
0.000123994
0.000124058
0.000124085
0.000124005
0.000124042
0.000124141
0.000124118
0.000124137
0.000124135
0.000124138
0.000123486
0.000124133
0.000123991
0.000124157
0.000124072
0.000124061
0.00012413
0.000124005
0.000124027
0.000124127
0.000124144
0.000119278
0.000124148
0.000124019
0.000124121
0.000124082
0.000124122
2.38321e-05
3.05065e-05
4.78163e-05
0.00012403
0.000124152
0.000124133
0.000124146
0.00012398
0.000124058
0.000124001
0.000124007
0.00012408
0.000122618
0.000124003
0.000124008
0.000124143
0.00012074
0.00012403
0.000124006
0.00012415
0.000124107
0.000124131
0.000124136
0.000124111
0.000123973
0.000124147
0.000123979
0.000123895
0.000123762
0.000124151
0.000124114
0.000124081
0.000124159
0.000123986
0.000124077
0.000124141
0.000124105
0.000123866
0.000124119
0.00012405
0.000124077
0.000123987
0.000124157
0.000124116
0.000123692
0.000123587
0.000123705
0.000124161
0.000124073
0.000123989
0.000124165
0.000123979
0.000124164
0.000124009
0.000123996
0.000124115
0.000124155
0.00012416
0.000124043
0.000124132
0.000124025
0.000124139
0.00012416
0.000124138
0.000124082
0.000124092
0.000123635
0.000124048
0.000124006
0.000124052
0.000124042
0.000123992
0.000124134
0.000120258
0.000124163
0.000124135
0.000123763
0.000124137
0.000123994
0.000123686
0.000124097
0.000124096
0.00012414
0.00012402
0.000122657
0.000124165
0.000124003
0.000123641
0.000123701
0.00012407
0.000124141
0.000124157
0.000124152
7.47619e-06
3.60278e-06
1.97371e-06
3.81188e-05
3.66607e-05
5.55142e-06
3.82563e-05
1.56859e-05
3.72226e-05
1.77596e-05
0.000124003
0.000123987
0.000124149
0.000124148
0.000124154
0.000124151
0.000124145
0.000124143
0.000124146
0.000124147
0.000124106
0.000124155
0.00012415
0.000124155
0.000124082
0.00012344
0.000124157
0.000122155
0.000124127
0.000124139
0.00012408
0.000124007
0.000124139
0.000124148
0.000124143
0.00012355
0.000122502
0.000123091
0.000123513
0.000124142
0.000124146
0.000124099
0.00012398
0.000124139
0.000122998
0.000123365
0.000123982
0.000124139
0.000123839
0.000124132
0.000124138
0.000124108
0.00012381
0.000123966
0.000124136
0.000124149
0.00012414
0.000123931
0.000124122
0.000123928
0.000124156
0.000124006
0.000123998
0.000124152
0.000123782
0.000123969
0.00012402
0.000123618
0.000124103
0.000123766
0.000124049
0.000124045
0.000124126
0.00012354
0.000124044
0.000123953
0.000123969
0.000124112
0.000123872
0.000124037
0.000123943
0.000123846
0.000123961
0.000124158
0.000123911
0.000124151
0.000123985
0.000124126
0.000123987
0.000123983
0.000124158
0.000123892
0.00012415
0.000123889
0.000123936
0.000124016
0.000123989
0.000124007
0.000124006
0.000123757
0.000123969
0.000123913
0.000124118
0.000123991
0.000123813
0.000124106
0.000123373
0.000123929
0.000123294
0.000123137
0.000123994
0.000123957
0.000123988
0.000123984
0.000123928
0.000124156
0.000124026
0.0001241
0.00012402
0.00012403
0.000124042
0.000124105
0.000123761
0.000124151
0.000123803
0.000123698
0.000124017
0.000124127
0.000123712
0.000124153
0.000124052
0.000124099
0.00012411
0.000124023
0.000123971
0.000123766
0.000123956
0.000123967
0.000124013
0.000124051
0.000124126
0.000124137
0.000124146
0.000123927
0.000124017
0.00012413
0.000124139
0.000124136
0.000123948
0.000124148
0.000124019
0.00012412
0.000123914
0.000124149
0.000123909
0.000124127
0.00012405
0.000123973
1.15418e-05
2.18566e-05
0.000123956
0.000124001
0.000124154
0.00012394
0.000124155
0.000124013
0.000124149
0.000124128
0.000123902
0.000124123
0.000123965
0.000124149
0.000124014
-2.09144e-07
0.000123825
0.00012413
0.000124127
0.000123861
0.000123966
0.000123995
0.000124122
0.000123926
0.000124143
0.000124042
0.000124008
0.00012412
0.000123975
0.000123896
0.000123918
0.000124027
4.73535e-05
0.000124138
0.00012412
0.000123991
0.000124144
0.000124066
0.000124018
0.000123989
0.000124001
0.000124131
0.000124054
0.000123934
0.000124016
0.000123938
0.000124144
0.000123944
0.000123981
0.000124024
0.000124103
1.98237e-05
2.72017e-05
3.4247e-05
9.49142e-06
0.000123979
3.29899e-05
2.5896e-05
0.000124141
1.90286e-05
1.69619e-05
3.81443e-05
7.41369e-06
3.99e-05
5.43745e-06
4.08022e-05
3.5184e-06
4.27895e-05
1.74399e-06
3.63377e-05
2.31139e-05
2.93414e-05
1.48749e-05
0.000123845
0.000124151
0.000124043
0.000124057
0.000120966
0.000124133
0.000124146
0.000124117
0.000123958
0.000124151
0.000124144
0.000124134
0.000124131
0.000123908
0.000124
0.000124127
0.000124131
0.000123974
0.000123869
0.000123856
0.000123453
0.000123917
0.000124161
0.000124138
0.000124011
0.00012416
0.000123859
0.000124003
0.000123815
0.000122929
0.000124132
0.000124142
0.000124158
0.00012386
0.00012401
0.000123819
0.000124016
0.000123989
2.59157e-05
2.18234e-05
3.2972e-05
1.1474e-05
0.000124166
0.000123865
1.98096e-05
2.81518e-05
3.55525e-05
9.43881e-06
0.000123974
0.000124088
0.000123961
0.000123953
0.000124042
0.000124088
0.000123879
0.000124129
0.000124052
0.000123151
0.00012396
0.000123928
5.92111e-05
0.00012328
0.000124155
0.000123993
0.000123897
0.000124145
0.000124147
0.000123982
0.000123769
0.000124012
0.000124073
0.000123845
0.000124101
0.000122974
0.000123955
0.00012394
0.000124096
0.000100816
0.000123942
0.000123544
0.000123929
0.000124158
0.000123825
1.07247e-05
2.10593e-05
3.53377e-05
2.80479e-05
1.35441e-05
-1.14528e-08
4.19944e-05
2.58323e-06
4.00957e-05
4.60945e-06
3.93622e-05
6.66825e-06
3.85784e-05
8.69534e-06
3.72598e-05
1.3607e-05
3.16471e-05
3.04625e-05
2.38654e-05
2.5181e-05
1.77497e-05
1.27876e-05
1.5645e-05
0.00012415
0.000102456
0.000123982
0.000123927
0.000124154
0.00012405
0.000124159
0.000123888
0.000124066
0.000124124
0.000124119
0.000124179
0.000123892
0.000124037
0.000123858
0.00012409
0.000123955
0.000124154
0.000124004
0.000123836
0.000123838
0.000124049
0.000124058
0.000124162
0.000124152
0.000124156
0.000124123
0.00012416
0.000123806
0.000124008
0.000124156
0.000123953
0.000124107
0.000124005
0.000124003
0.000123872
0.000124123
0.000124122
0.000123451
0.0001214
0.000123187
0.000123721
0.000124006
0.000123829
0.000124051
0.000124158
0.000124113
0.000124025
0.000123611
0.000123601
0.000124156
0.000124125
0.000124035
0.000124089
0.000123645
5.8292e-05
4.00753e-05
0.000124096
0.000124113
0.000123495
0.000122802
0.000123992
0.00012368
0.000123428
0.000124033
0.000123864
0.000124135
0.000124027
0.000124066
0.000119062
5.44518e-05
0.000124035
8.11468e-05
1.7115e-06
-3.86454e-07
0.000124004
0.000123977
0.000124124
0.00012416
0.000124146
0.000124156
0.000124147
0.000123991
-2.35273e-06
0.000122899
0.000124019
0.000124104
0.000122076
0.000124154
0.000124154
0.000122316
0.000124102
0.000124126
0.000121729
0.000124151
7.63442e-05
0.000124152
0.000123626
0.000124117
0.000122431
0.000123703
0.000123723
0.000124038
0.000124154
0.000124111
0.000124153
0.000124165
0.00012401
0.000116227
)
;

boundaryField
{
    back
    {
        type            empty;
    }
    ingreso
    {
        type            zeroGradient;
    }
    salida
    {
        type            fixedValue;
        value           uniform 0;
    }
    front
    {
        type            empty;
    }
    defaultFaces
    {
        type            zeroGradient;
    }
}


// ************************************************************************* //
