/*--------------------------------*- C++ -*----------------------------------*\
  =========                 |
  \\      /  F ield         | OpenFOAM: The Open Source CFD Toolbox
   \\    /   O peration     | Website:  https://openfoam.org
    \\  /    A nd           | Version:  7
     \\/     M anipulation  |
\*---------------------------------------------------------------------------*/
FoamFile
{
    version     2.0;
    format      ascii;
    class       surfaceScalarField;
    location    "25.5";
    object      phi;
}
// * * * * * * * * * * * * * * * * * * * * * * * * * * * * * * * * * * * * * //

dimensions      [0 3 -1 0 0 0 0];

internalField   nonuniform List<scalar> 
1111
(
6.08553e-09
1.33807e-08
-1.54008e-08
-4.0654e-09
6.24061e-09
-1.15497e-08
1.13947e-08
-1.45429e-08
4.49925e-09
9.73594e-09
3.07714e-10
2.12877e-10
-2.51836e-10
-1.39992e-08
1.40382e-08
-1.39059e-08
1.37151e-08
4.03688e-10
-1.41116e-09
1.48525e-08
1.98719e-09
-4.05606e-09
9.58641e-09
-1.12215e-08
5.69115e-09
-6.55442e-09
-1.25206e-08
1.24819e-08
6.59306e-09
-5.11342e-08
-2.55294e-08
7.66636e-08
-8.06845e-09
7.46582e-09
6.84324e-09
3.72633e-09
3.60715e-10
-3.7985e-09
-2.88544e-10
1.57832e-08
-1.58095e-08
-2.26747e-08
2.2701e-08
-9.63172e-09
-8.22888e-09
8.91993e-09
8.94066e-09
-3.48699e-08
1.7246e-08
-3.18179e-08
4.94417e-08
9.57462e-09
-1.87766e-09
-1.42514e-08
-3.26761e-09
3.44304e-09
-3.61288e-09
3.43745e-09
-3.70469e-09
1.30923e-08
1.98568e-09
-1.13733e-08
8.88902e-09
-2.1086e-09
-1.5033e-08
8.25254e-09
3.85487e-08
-3.14319e-08
-7.11682e-09
-1.91372e-08
-1.56969e-10
1.76131e-08
1.68103e-09
-4.02523e-10
3.81992e-09
-1.79951e-08
1.45777e-08
-6.10182e-08
-3.99385e-09
6.5012e-08
2.01113e-10
-1.3873e-09
-4.05654e-10
1.59184e-09
-1.02556e-09
-1.32828e-08
-2.49841e-10
-3.61348e-10
3.48266e-10
2.62923e-10
-9.94218e-09
-8.05109e-09
1.22873e-08
5.70594e-09
8.42494e-10
-2.20751e-09
-8.52034e-09
9.88535e-09
7.70801e-09
1.07411e-09
-8.47296e-09
-3.09152e-10
-2.75921e-09
-7.75755e-09
1.0677e-08
-1.60271e-10
1.12629e-08
-2.82435e-10
-2.09145e-09
-1.10366e-09
1.06967e-09
1.32202e-10
-9.82194e-11
-4.14813e-10
9.73061e-10
5.87287e-10
-1.14554e-09
-6.92742e-10
-4.63241e-11
7.36867e-10
2.19879e-12
3.91163e-11
-1.13968e-09
8.60784e-11
1.01449e-09
-2.66327e-11
-1.03791e-09
6.05383e-10
-1.81196e-08
-1.62296e-09
-6.00923e-10
7.0539e-11
-1.62357e-10
1.33076e-08
-1.33125e-08
3.82487e-09
-4.83062e-10
6.95061e-10
4.68064e-10
-6.80064e-10
-7.88724e-10
-2.64912e-09
2.01767e-09
1.42017e-09
-2.01711e-09
8.63889e-09
-1.06778e-08
-4.62223e-10
-2.30881e-10
9.21824e-11
-8.79301e-09
1.00124e-08
-9.28783e-09
1.16799e-08
-1.67189e-08
5.15562e-09
-1.16655e-10
1.1598e-10
-2.47488e-10
-3.30715e-10
3.15032e-10
9.73413e-10
-2.18771e-10
-5.98861e-08
7.43694e-08
-1.44834e-08
1.21632e-09
-4.24229e-10
-1.4165e-09
6.24408e-10
9.55929e-10
1.02826e-08
-1.36453e-08
2.4068e-09
-3.43222e-10
6.60338e-09
-7.96851e-09
1.70835e-09
-6.35596e-09
5.83558e-09
5.41006e-09
-4.88969e-09
-6.86145e-09
-2.43658e-09
2.28059e-09
7.01743e-09
-2.39797e-10
-9.08836e-08
9.13075e-08
-1.84027e-10
-2.26555e-10
-8.97427e-08
9.01255e-08
-1.56207e-10
8.30624e-08
-1.49944e-09
1.07705e-10
-8.16707e-08
-3.30461e-09
2.46034e-11
8.88221e-10
9.70837e-10
-6.42739e-10
4.11586e-09
-1.90467e-09
3.25294e-09
-5.46413e-09
-1.19052e-09
1.08132e-09
-1.49922e-08
6.57169e-09
9.04378e-09
1.0294e-09
-9.73654e-09
-3.36647e-10
-6.24729e-09
1.26458e-08
1.5384e-09
-7.93687e-09
1.41641e-08
-3.86671e-09
3.16165e-09
-1.3459e-08
1.5382e-08
1.68167e-09
-1.6349e-09
-1.94698e-10
-1.99584e-08
-7.57554e-09
2.77287e-08
1.35149e-08
-8.14384e-09
-2.30809e-09
7.51992e-09
-1.14591e-08
-1.65802e-10
3.32529e-10
-1.58323e-09
-3.73282e-08
-2.25579e-08
7.86599e-09
-1.10384e-10
3.92428e-09
-6.78551e-09
1.05936e-08
6.20427e-09
-7.46232e-10
4.34593e-10
6.04465e-10
-2.92827e-10
5.98083e-09
-4.56166e-09
3.51273e-09
-4.9319e-09
-7.20658e-10
-7.54973e-10
3.35948e-10
8.84564e-10
-8.44807e-10
-2.44756e-10
-1.26602e-09
1.09597e-09
-1.72788e-08
2.45615e-09
1.42088e-09
1.34017e-08
3.34593e-10
-8.78197e-10
-2.02628e-10
-3.63832e-09
-1.46538e-08
1.01337e-09
5.66563e-09
1.16031e-08
-5.2473e-09
-1.20214e-08
1.63639e-08
5.52308e-10
-1.58367e-08
-1.0795e-09
-8.33592e-10
5.9782e-10
6.70366e-10
-1.08034e-09
5.90731e-10
4.89608e-10
-6.98433e-09
-3.86898e-09
4.49735e-09
-4.59461e-10
6.54933e-10
-1.95471e-10
1.32171e-09
-1.49022e-08
-6.69236e-10
8.58736e-09
-9.93523e-09
-1.22412e-09
-1.32509e-09
1.24368e-08
4.40394e-09
-4.17226e-09
-1.26684e-08
3.40892e-10
6.90119e-09
-7.57858e-09
6.51298e-09
-2.03607e-09
-8.30424e-09
7.66271e-09
2.6776e-09
-1.79458e-09
5.96308e-10
-1.34555e-08
-2.86274e-10
-1.73188e-10
-6.1264e-10
1.35352e-09
-7.60233e-09
8.05609e-10
1.71658e-08
-1.60746e-09
-1.49659e-08
1.61341e-08
-1.16812e-09
1.18037e-08
1.3989e-08
-1.5582e-08
-1.02107e-08
-9.32488e-10
1.5457e-09
-6.13208e-10
1.66759e-09
-2.16858e-09
5.00983e-10
2.9573e-09
-4.37773e-09
1.42043e-09
2.07825e-09
-1.74681e-09
-3.31438e-10
-1.22562e-08
2.1713e-10
1.2039e-08
2.84033e-09
-7.62085e-10
8.81573e-09
-1.49905e-08
6.38571e-09
-7.34157e-09
1.18914e-10
4.06232e-09
-4.549e-10
-3.20105e-09
3.31996e-09
-7.89058e-09
9.27073e-09
-1.38016e-09
-9.72074e-10
4.05764e-09
1.03029e-09
1.69881e-08
-1.45174e-08
-1.51482e-09
-5.27998e-09
5.08034e-09
-1.70503e-09
-2.77557e-10
7.04808e-09
-7.0224e-09
-2.56864e-11
7.08285e-09
4.30804e-09
3.42502e-10
-1.55625e-08
1.02511e-08
1.71152e-08
5.6716e-09
8.31244e-09
8.1918e-09
-6.7235e-09
6.11112e-10
-1.28673e-08
1.515e-09
-1.91604e-10
-1.25855e-08
3.75914e-09
-4.39173e-10
1.41603e-08
-1.3608e-08
-7.62812e-11
-1.17447e-09
-1.35351e-08
7.02545e-09
9.78852e-10
-6.25812e-11
-8.95678e-09
5.36365e-09
-3.16266e-08
-1.25564e-08
-2.26076e-09
1.28198e-09
1.3602e-08
1.10114e-08
-1.06861e-08
-1.39273e-08
1.67107e-08
-3.1088e-09
-1.36019e-08
1.81365e-09
3.80627e-09
-1.5254e-09
-1.01525e-09
-1.08352e-09
1.41836e-09
6.80411e-10
-3.25753e-10
4.6094e-10
4.69278e-10
6.20666e-08
-6.21923e-08
1.25712e-10
6.18797e-08
-6.22264e-08
3.46635e-10
8.61551e-10
6.47965e-08
-6.56229e-08
8.26399e-10
6.41922e-08
6.04347e-10
-1.59724e-10
-6.65593e-08
9.3633e-10
-6.22296e-08
6.21502e-08
7.94393e-11
1.31539e-09
-6.78747e-08
-6.22959e-08
6.62542e-11
1.19843e-08
-1.24418e-09
1.87827e-09
-3.75591e-09
3.12181e-09
4.74414e-10
-1.34156e-09
1.21453e-09
-8.89395e-10
1.54083e-09
-1.82984e-09
1.1784e-09
1.60655e-09
-1.78193e-09
5.07912e-10
-1.18115e-10
-3.29666e-09
3.15732e-09
-2.43964e-09
2.57899e-09
-9.71821e-10
-2.9369e-09
2.66455e-09
-3.95992e-09
-5.49143e-09
6.8515e-10
-7.97828e-10
1.52569e-09
1.22968e-09
-6.62422e-09
8.00832e-09
2.92395e-09
2.10086e-08
-4.29792e-09
-8.60197e-10
3.06091e-10
1.23926e-09
-1.02107e-08
-2.71175e-08
5.50984e-09
-4.53582e-09
-3.07583e-09
2.10182e-09
1.41589e-10
3.98467e-12
5.91295e-10
-2.89735e-09
3.57573e-09
8.54202e-09
9.63574e-10
-6.63734e-10
2.27101e-09
-2.57909e-09
2.38788e-09
1.45729e-08
1.30181e-08
-2.64982e-08
3.20707e-08
6.10892e-09
-2.2439e-08
-1.01681e-08
1.78272e-08
-1.74754e-08
1.06595e-08
-3.24198e-10
5.11363e-11
-1.50887e-09
-1.98566e-09
-1.9732e-09
3.5911e-09
1.45188e-08
-5.45377e-10
-1.33771e-08
2.00967e-10
-2.9712e-09
-1.66665e-10
1.51094e-08
1.72907e-08
1.34612e-08
7.64327e-10
-1.52848e-09
-1.2697e-08
-1.9837e-09
5.96305e-09
1.21394e-08
-8.95736e-10
-1.31664e-09
-3.50034e-09
2.7312e-09
3.92646e-09
2.39834e-09
1.40075e-08
4.14245e-09
-1.3746e-08
1.71655e-08
-1.63334e-09
2.94518e-09
-3.70041e-09
1.89579e-09
-4.46933e-09
1.27128e-08
-1.19481e-08
-1.37084e-08
6.07896e-10
8.63119e-09
-1.95269e-09
1.65466e-09
1.82372e-09
-8.86514e-09
4.78029e-10
-4.16926e-09
-5.93824e-09
1.20484e-08
-1.49753e-08
1.49672e-09
1.64072e-09
-2.09824e-09
1.61991e-08
-1.57416e-08
-9.66924e-10
1.38827e-08
2.55121e-09
-3.79455e-09
-1.37472e-08
7.24046e-09
-1.67864e-08
-7.92943e-09
6.4087e-09
5.8221e-09
1.41484e-08
-9.36426e-09
3.19077e-09
8.85109e-09
9.77422e-09
3.9057e-09
-4.08127e-09
2.13145e-08
-1.8667e-08
4.59293e-09
-9.85582e-09
2.30521e-09
5.20853e-09
1.33778e-08
-8.04838e-11
1.23466e-08
-1.3233e-08
-1.61038e-09
2.66454e-09
-1.85976e-09
8.056e-10
1.06724e-08
-6.31843e-09
7.24905e-09
-1.02432e-08
1.41676e-09
-4.75561e-09
1.10925e-08
-1.15842e-08
-7.39626e-09
8.85201e-09
9.2167e-09
1.24551e-08
9.91852e-10
-1.35275e-08
1.773e-09
8.75031e-10
-1.07772e-08
-6.73425e-09
1.01152e-08
-1.84315e-09
2.52532e-09
-8.59967e-09
4.66548e-09
-5.09601e-09
1.1154e-08
-3.49314e-09
-1.13093e-08
3.64846e-09
-4.54334e-09
1.09417e-08
2.19101e-09
1.23665e-09
-4.94162e-09
-1.74629e-08
1.04038e-08
1.20007e-08
9.12999e-10
-1.0617e-08
-9.61639e-09
1.52918e-08
1.20158e-08
2.69003e-09
-9.49732e-09
-1.31686e-08
-2.51165e-10
-1.23616e-08
3.30127e-10
-6.02709e-10
1.09496e-08
1.23636e-08
-8.01921e-09
1.60234e-08
-1.5319e-08
3.438e-09
-4.9654e-10
1.62976e-09
1.22685e-08
-3.8578e-09
-1.23359e-08
-5.12651e-09
4.53495e-10
4.48142e-09
1.18179e-08
-7.51985e-09
7.89853e-10
-1.08767e-09
1.87144e-09
-2.39414e-09
5.95299e-09
2.6021e-08
-8.07846e-10
-1.31542e-08
1.39621e-08
2.76487e-08
-2.18527e-08
2.19144e-08
1.9216e-08
-1.24247e-08
-2.51827e-09
1.47676e-08
1.01682e-10
-1.19183e-08
-3.41652e-10
-6.00316e-09
-2.01121e-09
2.45312e-09
1.7491e-09
2.32973e-10
-1.06253e-08
1.063e-08
-2.37674e-10
2.09732e-09
-5.51548e-09
-1.0459e-08
1.01566e-08
-6.17006e-10
-1.02289e-08
-7.06503e-12
-1.03465e-08
-2.95171e-09
-1.16801e-08
2.31812e-09
7.70826e-09
5.0591e-09
3.1709e-10
-1.13797e-08
1.12956e-08
7.12991e-10
-8.36456e-09
5.28332e-09
-6.75873e-10
2.79867e-09
-3.43284e-09
-1.28617e-08
-1.3415e-08
1.29243e-08
-9.83132e-09
-1.57527e-08
1.00215e-08
8.99371e-09
8.34591e-10
2.56267e-09
-1.57169e-08
1.06879e-08
1.67848e-09
4.06227e-09
4.07985e-10
-6.5573e-10
-4.72912e-10
-4.00543e-09
2.75369e-09
-1.71947e-09
4.27131e-10
-4.98407e-10
7.12766e-11
-2.44322e-09
1.24215e-08
2.03757e-09
2.53411e-09
-1.22904e-09
-1.92659e-09
-7.93805e-12
-2.63935e-09
-7.961e-10
1.25644e-08
9.67554e-09
-5.56553e-10
7.16095e-09
-1.18198e-09
-5.42241e-09
-9.70197e-09
-5.0709e-09
3.3497e-10
9.21606e-11
4.45873e-09
1.43531e-09
-1.65111e-08
-6.75322e-10
-9.75386e-10
-2.08386e-09
7.47048e-10
2.52831e-09
6.21022e-08
-2.70596e-11
-6.20751e-08
6.2384e-08
1.66127e-10
-6.25501e-08
-1.4128e-08
1.47667e-10
1.44752e-08
-4.9484e-10
2.54329e-09
-2.13063e-09
2.87079e-09
1.78515e-09
-4.43165e-09
-6.16212e-10
-6.85337e-10
5.56066e-10
-1.63556e-10
6.71214e-10
-4.94109e-10
1.87126e-08
1.11763e-09
-1.53715e-08
-3.57989e-10
-1.96301e-09
1.20432e-08
2.18834e-09
1.74937e-09
4.97425e-09
-1.7333e-09
-7.75571e-08
-2.41108e-08
-4.8321e-09
1.5579e-08
2.34546e-09
-9.17753e-10
-3.44106e-09
-1.44376e-09
7.93722e-10
-6.66604e-10
-1.30071e-08
-3.12565e-10
1.33196e-08
-1.05556e-08
-6.67463e-09
1.0496e-08
-9.18016e-09
8.89293e-09
-2.39297e-10
1.98608e-09
1.24873e-08
-1.21867e-08
-3.00612e-10
7.93484e-10
5.1975e-11
9.47885e-09
1.14411e-09
-1.26287e-09
-4.20185e-10
-1.41627e-08
-5.19764e-10
-1.3252e-08
1.19364e-08
-1.13167e-08
-6.60411e-08
6.49552e-08
1.08587e-09
5.57991e-10
-5.54006e-10
1.15333e-08
-5.22386e-10
2.39785e-11
-1.84713e-09
2.75816e-09
-3.36418e-09
-1.35056e-08
-1.63103e-09
2.54244e-09
-4.59982e-09
-1.37285e-08
1.81731e-09
5.61706e-09
9.34181e-09
-8.68992e-09
-5.50969e-10
2.85831e-11
-9.36317e-09
-1.24313e-08
8.81114e-11
-6.2801e-08
2.38153e-10
6.25628e-08
6.89759e-10
6.35024e-08
-9.01128e-11
-7.70716e-10
-1.42541e-08
1.23362e-10
-6.33531e-08
6.32298e-08
1.67309e-10
-6.29014e-08
6.27341e-08
5.9832e-10
6.16896e-08
2.19799e-10
-6.19094e-08
6.14731e-08
2.16453e-10
-8.78558e-08
8.84665e-08
-6.36284e-12
9.35138e-08
-9.3186e-08
-2.02098e-10
-8.66002e-08
-4.29247e-10
9.34696e-08
-1.15498e-10
-8.48969e-08
-7.66971e-10
9.35473e-08
2.69e-10
-5.19096e-10
2.0399e-09
9.23689e-08
-6.93741e-08
6.21424e-08
-6.23822e-08
-6.30275e-08
6.12842e-08
1.88947e-10
-3.00029e-09
2.6604e-09
-1.34061e-08
9.80371e-11
2.36933e-10
2.50443e-09
9.99648e-09
-1.21051e-08
3.8292e-08
-3.45015e-08
-1.6376e-08
1.40174e-08
-9.44808e-11
-2.14715e-10
3.42976e-10
9.78359e-10
-1.99429e-10
4.29742e-10
4.69453e-09
1.06748e-09
-3.86622e-09
-4.81265e-10
5.51804e-10
-3.89081e-10
-2.39645e-09
1.26405e-08
2.17744e-09
-1.44196e-08
-2.22741e-09
-3.81981e-09
5.69734e-09
1.09901e-09
-2.37211e-09
1.40016e-08
-1.22571e-09
-4.75087e-09
7.49145e-09
-7.81057e-09
-1.89264e-08
-1.28674e-08
7.62927e-09
5.84601e-09
-3.25518e-10
-5.15799e-10
3.29444e-09
1.43223e-08
1.68036e-09
-1.15014e-09
-4.95334e-10
5.31293e-10
-3.13516e-10
1.5882e-08
-4.5464e-10
-1.57399e-08
-4.87651e-09
-2.76882e-09
2.88387e-10
-2.43145e-10
4.40703e-09
-1.84205e-08
6.78879e-10
-1.74734e-09
-2.37668e-09
-2.23071e-09
1.51504e-08
-9.05357e-08
-1.80586e-10
9.17067e-08
-2.33067e-10
-8.91444e-08
-4.74933e-10
9.31401e-08
-2.5693e-10
-9.29102e-08
-6.67297e-10
-1.84212e-09
1.60273e-08
9.20146e-08
-1.72113e-10
1.18561e-11
-1.36005e-10
1.12564e-08
2.10751e-09
-1.00464e-08
-1.17935e-08
-5.54656e-09
8.45257e-09
1.38508e-09
-6.9137e-09
-6.5215e-09
9.11687e-09
-2.73101e-10
1.01508e-08
1.90874e-08
-1.76061e-08
3.00785e-09
-1.23563e-08
3.02826e-09
-7.00898e-08
4.04871e-09
-2.03156e-08
-1.25272e-08
-6.30267e-10
-5.74109e-09
-1.5391e-08
9.2138e-09
-1.5142e-08
6.08377e-10
5.16098e-10
-1.45391e-09
-1.60217e-08
1.65829e-08
9.73864e-09
-9.71404e-09
-5.53727e-09
1.47568e-08
-1.58391e-09
8.28727e-10
-1.5515e-09
6.27975e-10
1.20973e-08
3.42447e-09
7.0945e-08
-1.78752e-08
9.67473e-10
-1.45217e-08
-3.23819e-10
-3.66986e-10
-2.37506e-10
6.07577e-08
-6.10146e-08
-6.33413e-08
-6.30735e-08
-7.50383e-11
-2.69578e-10
-9.25656e-08
-6.05731e-08
6.2613e-08
6.50629e-08
-6.03041e-08
6.45438e-08
-6.04196e-08
6.37769e-08
-6.06216e-08
6.33476e-08
9.22973e-08
4.08829e-10
-6.5738e-09
7.49652e-08
-6.4967e-08
1.34906e-10
-1.34906e-10
2.20877e-09
-3.86148e-10
1.54794e-08
-1.56816e-10
1.56816e-10
5.23265e-10
1.39515e-09
1.40337e-08
1.28126e-08
-2.61462e-09
3.62365e-09
6.42914e-09
1.92214e-09
4.84204e-10
-3.47085e-10
-2.86811e-09
1.43098e-08
1.48011e-08
-4.32512e-09
1.1525e-08
2.83591e-10
2.23274e-10
3.01845e-09
-1.0547e-09
-1.80732e-09
-5.91263e-09
-1.42725e-10
-5.09376e-10
1.51882e-08
3.9333e-10
1.84075e-10
1.67394e-08
-2.5357e-08
1.70966e-08
2.54051e-09
1.51401e-09
2.12197e-09
-3.48877e-09
1.88827e-08
-1.75159e-08
-1.5137e-10
9.67159e-10
-1.43841e-09
-7.91464e-08
-7.08125e-08
1.48255e-09
-1.19889e-09
7.41623e-10
2.27712e-08
1.82305e-08
-6.4562e-09
1.96665e-10
-4.52007e-09
-1.92858e-09
3.00086e-08
1.32466e-10
1.49442e-08
7.34309e-08
1.16285e-10
5.8172e-10
-2.34246e-10
-3.0593e-10
-3.90749e-09
2.37378e-08
-1.47117e-08
1.25082e-09
-1.38896e-08
-1.02025e-10
2.01152e-08
-2.80787e-08
9.01595e-10
2.61494e-09
-7.33264e-10
)
;

boundaryField
{
    back
    {
        type            empty;
        value           nonuniform 0();
    }
    ingreso
    {
        type            calculated;
        value           nonuniform List<scalar> 
14
(
-1.54286e-08
-1.54288e-08
-1.54288e-08
-1.54288e-08
-1.54286e-08
-1.54283e-08
-1.54288e-08
-1.54288e-08
-1.54286e-08
-1.54286e-08
-1.54288e-08
-1.5428e-08
-1.5428e-08
-1.54286e-08
)
;
    }
    salida
    {
        type            calculated;
        value           nonuniform List<scalar> 2(1.01668e-07 1.14332e-07);
    }
    front
    {
        type            empty;
        value           nonuniform 0();
    }
    defaultFaces
    {
        type            calculated;
        value           uniform 0;
    }
}


// ************************************************************************* //
