/*--------------------------------*- C++ -*----------------------------------*\
  =========                 |
  \\      /  F ield         | OpenFOAM: The Open Source CFD Toolbox
   \\    /   O peration     | Website:  https://openfoam.org
    \\  /    A nd           | Version:  7
     \\/     M anipulation  |
\*---------------------------------------------------------------------------*/
FoamFile
{
    version     2.0;
    format      ascii;
    class       volScalarField;
    location    "29.5";
    object      p;
}
// * * * * * * * * * * * * * * * * * * * * * * * * * * * * * * * * * * * * * //

dimensions      [0 2 -2 0 0 0 0];

internalField   nonuniform List<scalar> 
591
(
0.000124027
0.000124043
0.000124057
0.000124019
0.00012402
0.000124106
0.000124083
0.000124052
0.000117028
0.000124056
0.000124215
0.000122937
0.000124078
0.000119813
0.000124053
0.000124098
0.000123982
0.000124087
0.000122066
0.000123436
0.000124022
-3.55715e-06
0.000124215
0.000124024
0.000124174
0.000124042
0.000124112
0.000124136
0.000124053
0.000124083
0.000124193
0.00012417
0.000124188
0.000124187
0.00012419
0.000123532
0.000124185
0.000124034
0.000124209
0.000124126
0.000124112
0.000124182
0.000124052
0.000124072
0.000124179
0.000124196
0.00011932
0.0001242
0.000124065
0.00012417
0.000124135
0.000124174
2.39207e-05
3.05931e-05
4.78779e-05
0.00012407
0.000124204
0.000124185
0.000124198
0.000124028
0.000124107
0.000124048
0.000124052
0.000124118
0.00012267
0.000124049
0.000124054
0.000124195
0.000120802
0.000124072
0.000124054
0.000124202
0.00012416
0.000124183
0.000124188
0.000124164
0.000124021
0.000124199
0.000124025
0.000123945
0.000123808
0.000124203
0.000124166
0.000124134
0.000124211
0.000124034
0.000124126
0.000124193
0.000124158
0.000123915
0.000124171
0.000124103
0.000124128
0.000124033
0.000124209
0.000124166
0.000123738
0.000123634
0.000123758
0.000124213
0.000124125
0.000124036
0.000124217
0.000124022
0.000124216
0.000124055
0.000124043
0.000124167
0.000124207
0.000124212
0.000124095
0.000124184
0.000124072
0.000124191
0.000124212
0.000124188
0.000124135
0.000124144
0.000123689
0.000124101
0.000124052
0.000124084
0.000124094
0.000124038
0.000124185
0.000120319
0.000124215
0.000124188
0.000123809
0.000124189
0.00012404
0.000123732
0.000124149
0.000124147
0.000124192
0.000124064
0.000122705
0.000124217
0.000124049
0.000123694
0.000123756
0.00012412
0.000124193
0.000124209
0.000124204
7.62457e-06
3.65179e-06
2.03615e-06
3.81783e-05
3.67238e-05
5.65653e-06
3.83175e-05
1.5753e-05
3.72912e-05
1.78239e-05
0.000124049
0.000124035
0.000124201
0.0001242
0.000124206
0.000124203
0.000124197
0.000124195
0.000124198
0.000124199
0.000124159
0.000124207
0.000124202
0.000124207
0.000124135
0.000123495
0.000124209
0.000122218
0.00012418
0.000124191
0.000124132
0.000124055
0.000124191
0.0001242
0.000124195
0.000123603
0.000122565
0.00012315
0.000123565
0.000124194
0.000124199
0.000124144
0.000124025
0.000124191
0.000123059
0.000123419
0.000124027
0.00012419
0.000123888
0.000124184
0.00012419
0.000124161
0.00012386
0.000124012
0.000124189
0.0001242
0.000124193
0.000123984
0.000124175
0.000123981
0.000124208
0.000124051
0.000124044
0.000124204
0.00012383
0.000124015
0.000124062
0.00012367
0.000124155
0.000123816
0.000124101
0.000124099
0.000124178
0.00012359
0.000124095
0.000124001
0.000124013
0.000124164
0.000123923
0.000124087
0.000123993
0.000123898
0.000124007
0.00012421
0.000123963
0.000124203
0.000124039
0.000124178
0.000124037
0.000124034
0.000124211
0.000123941
0.000124202
0.000123936
0.000123983
0.000124058
0.000124034
0.000124056
0.000124052
0.000123807
0.000124017
0.000123962
0.00012417
0.000124038
0.000123864
0.000124159
0.000123424
0.000123975
0.000123339
0.000123193
0.000124039
0.000124002
0.000124034
0.00012403
0.000123979
0.000124208
0.000124074
0.000124151
0.00012407
0.000124078
0.00012409
0.000124158
0.000123813
0.000124204
0.000123853
0.000123748
0.000124064
0.000124179
0.000123763
0.000124205
0.000124104
0.000124151
0.000124162
0.000124066
0.000124019
0.000123819
0.000124001
0.000124013
0.000124063
0.000124103
0.000124178
0.000124189
0.000124199
0.000123974
0.000124067
0.000124182
0.000124192
0.000124188
0.000123996
0.000124199
0.000124071
0.000124173
0.000123962
0.000124201
0.000123956
0.000124179
0.000124095
0.000124021
1.16526e-05
2.19221e-05
0.000124
0.000124048
0.000124206
0.000123986
0.000124207
0.000124061
0.000124201
0.00012418
0.000123947
0.000124175
0.000124013
0.000124201
0.000124058
-2.09661e-07
0.000123879
0.000124182
0.000124179
0.000123907
0.000124018
0.000124049
0.000124174
0.000123971
0.000124195
0.000124092
0.000124053
0.000124172
0.000124018
0.000123941
0.000123963
0.00012407
4.74246e-05
0.00012419
0.000124172
0.00012404
0.000124196
0.000124117
0.000124066
0.000124039
0.000124047
0.000124183
0.000124091
0.000123979
0.000124068
0.000123983
0.000124196
0.000123989
0.00012403
0.000124072
0.000124153
1.98903e-05
2.72994e-05
3.43158e-05
9.6501e-06
0.000124025
3.30709e-05
2.59877e-05
0.000124193
1.90984e-05
1.70583e-05
3.82085e-05
7.56187e-06
3.99627e-05
5.57899e-06
4.08636e-05
3.6444e-06
4.28483e-05
1.8308e-06
3.64072e-05
2.31958e-05
2.94353e-05
1.50009e-05
0.000123894
0.000124203
0.000124092
0.000124103
0.000121021
0.000124172
0.000124198
0.000124169
0.000124003
0.000124203
0.000124196
0.000124186
0.000124183
0.000123957
0.000124047
0.00012418
0.000124184
0.000124026
0.000123918
0.000123916
0.000123508
0.000123972
0.000124213
0.000124189
0.000124058
0.000124211
0.000123905
0.000124054
0.000123861
0.000122978
0.000124184
0.000124194
0.00012421
0.000123909
0.000124062
0.000123865
0.000124064
0.000124042
2.60236e-05
2.18756e-05
3.30493e-05
1.15897e-05
0.000124218
0.00012391
1.98549e-05
2.82437e-05
3.56209e-05
9.57183e-06
0.000124026
0.000124139
0.000124006
0.000124002
0.000124076
0.000124141
0.000123933
0.000124181
0.000124105
0.000123207
0.000124008
0.000123976
5.92862e-05
0.000123334
0.000124207
0.000124037
0.000123942
0.000124197
0.000124199
0.000124026
0.000123817
0.000124057
0.000124122
0.000123894
0.000124154
0.000123024
0.000123999
0.000123988
0.000124149
0.000100883
0.000123996
0.000123598
0.000123975
0.000124209
0.000123871
1.08628e-05
2.11225e-05
3.53955e-05
2.81664e-05
1.36509e-05
2.26566e-08
4.20631e-05
2.6567e-06
4.01631e-05
4.73171e-06
3.943e-05
6.78906e-06
3.86426e-05
8.82383e-06
3.73148e-05
1.3693e-05
3.17321e-05
3.05723e-05
2.39358e-05
2.52702e-05
1.78159e-05
1.29196e-05
1.57363e-05
0.000124202
0.000102539
0.000124029
0.000123972
0.000124206
0.000124102
0.000124211
0.000123937
0.000124103
0.000124176
0.000124171
0.000124217
0.000123942
0.000124075
0.000123911
0.000124141
0.000124
0.000124206
0.000124058
0.00012389
0.000123892
0.000124087
0.000124087
0.000124213
0.000124204
0.000124208
0.000124175
0.000124212
0.000123856
0.000124054
0.000124208
0.000123999
0.000124143
0.000124051
0.000124056
0.00012392
0.000124174
0.000124174
0.000123498
0.000121454
0.000123232
0.000123769
0.000124053
0.000123877
0.000124087
0.000124211
0.000124166
0.000124066
0.00012366
0.000123647
0.000124208
0.000124177
0.000124081
0.000124142
0.000123694
5.83633e-05
4.01419e-05
0.000124149
0.000124166
0.000123543
0.000122859
0.000124036
0.000123736
0.000123482
0.00012407
0.000123918
0.000124188
0.000124075
0.00012411
0.000119122
5.45234e-05
0.000124078
8.12268e-05
1.81334e-06
-3.93825e-07
0.000124048
0.000124021
0.000124176
0.000124212
0.000124198
0.000124208
0.0001242
0.000124035
-2.33491e-06
0.000122952
0.000124064
0.000124156
0.000122132
0.000124206
0.000124206
0.000122376
0.000124146
0.000124178
0.000121778
0.000124204
7.64259e-05
0.000124204
0.000123696
0.000124169
0.000122488
0.000123751
0.000123777
0.000124083
0.000124207
0.000124163
0.000124205
0.000124216
0.000124059
0.00011629
)
;

boundaryField
{
    back
    {
        type            empty;
    }
    ingreso
    {
        type            zeroGradient;
    }
    salida
    {
        type            fixedValue;
        value           uniform 0;
    }
    front
    {
        type            empty;
    }
    defaultFaces
    {
        type            zeroGradient;
    }
}


// ************************************************************************* //
