/*--------------------------------*- C++ -*----------------------------------*\
  =========                 |
  \\      /  F ield         | OpenFOAM: The Open Source CFD Toolbox
   \\    /   O peration     | Website:  https://openfoam.org
    \\  /    A nd           | Version:  7
     \\/     M anipulation  |
\*---------------------------------------------------------------------------*/
FoamFile
{
    version     2.0;
    format      ascii;
    class       surfaceScalarField;
    location    "29.5";
    object      phi;
}
// * * * * * * * * * * * * * * * * * * * * * * * * * * * * * * * * * * * * * //

dimensions      [0 3 -1 0 0 0 0];

internalField   nonuniform List<scalar> 
1111
(
6.13766e-09
1.33538e-08
-1.54665e-08
-4.02492e-09
6.29707e-09
-1.16074e-08
1.1448e-08
-1.45944e-08
4.58106e-09
9.67171e-09
3.41639e-10
2.45231e-10
-2.96109e-10
-1.40318e-08
1.40826e-08
-1.39257e-08
1.37318e-08
4.391e-10
-1.4716e-09
1.48594e-08
2.04077e-09
-4.06861e-09
9.64725e-09
-1.11416e-08
5.56299e-09
-6.58856e-09
-1.25476e-08
1.25099e-08
6.62629e-09
-5.10276e-08
-2.56193e-08
7.66469e-08
-8.07074e-09
7.48422e-09
6.88359e-09
3.70373e-09
3.55394e-10
-3.77579e-09
-2.8333e-10
1.57637e-08
-1.58004e-08
-2.2783e-08
2.28197e-08
-9.62312e-09
-8.15832e-09
8.87805e-09
8.90339e-09
-3.49677e-08
1.7331e-08
-3.18937e-08
4.95304e-08
9.56414e-09
-1.89141e-09
-1.42613e-08
-3.02192e-09
3.30631e-09
-3.6999e-09
3.41551e-09
-3.70197e-09
1.31318e-08
1.97474e-09
-1.14046e-08
8.88787e-09
-2.14287e-09
-1.50365e-08
8.29149e-09
3.83479e-08
-3.11557e-08
-7.19217e-09
-1.91689e-08
-1.08332e-10
1.75707e-08
1.70657e-09
-4.64558e-10
3.8577e-09
-1.79736e-08
1.45804e-08
-6.11536e-08
-3.95333e-09
6.51069e-08
1.93605e-10
-1.37588e-09
-3.98667e-10
1.58094e-09
-1.06099e-09
-1.33293e-08
-2.39475e-10
-3.55696e-10
3.39379e-10
2.55791e-10
-9.95576e-09
-8.05738e-09
1.23187e-08
5.69443e-09
8.1892e-10
-2.19655e-09
-8.51874e-09
9.89637e-09
7.75047e-09
1.05305e-09
-8.53448e-09
-2.6904e-10
-2.78868e-09
-7.76164e-09
1.07218e-08
-1.71471e-10
1.12967e-08
-3.35763e-10
-2.07304e-09
-1.0883e-09
1.05613e-09
1.23299e-10
-9.11318e-11
-3.94893e-10
9.58119e-10
5.65356e-10
-1.12858e-09
-6.79567e-10
-4.55213e-11
7.23183e-10
1.90559e-12
3.60613e-11
-1.12094e-09
8.81013e-11
9.96775e-10
-3.12078e-11
-1.02103e-09
6.37281e-10
-1.81837e-08
-1.62249e-09
-5.87637e-10
6.78377e-11
-1.59768e-10
1.3341e-08
-1.3316e-08
3.83267e-09
-4.74209e-10
6.8648e-10
4.57594e-10
-6.69865e-10
-7.22037e-10
-2.61118e-09
1.98596e-09
1.34726e-09
-2.05875e-09
8.8179e-09
-1.08278e-08
-4.50485e-10
-2.25694e-10
8.85426e-11
-8.79076e-09
1.00288e-08
-9.30879e-09
1.17289e-08
-1.67864e-08
5.14402e-09
-8.65135e-11
1.11491e-10
-2.41456e-10
-3.20521e-10
3.06761e-10
9.61616e-10
-2.12242e-10
-5.98877e-08
7.43528e-08
-1.44651e-08
1.20521e-09
-4.13905e-10
-1.40111e-09
6.09804e-10
1.00355e-09
1.02797e-08
-1.36658e-08
2.38249e-09
-4.35242e-10
6.67812e-09
-8.06927e-09
1.8264e-09
-6.37729e-09
5.82903e-09
5.42365e-09
-4.87538e-09
-6.91297e-09
-2.40028e-09
2.25593e-09
7.05731e-09
-2.02113e-10
-9.08864e-08
9.12917e-08
-2.03209e-10
-2.36929e-10
-8.97471e-08
9.0139e-08
-1.54899e-10
8.30626e-08
-1.49865e-09
1.04529e-10
-8.16685e-08
-3.27556e-09
-2.21753e-11
8.74852e-10
9.62177e-10
-6.31817e-10
4.09984e-09
-1.86943e-09
3.25684e-09
-5.48725e-09
-1.17632e-09
1.06917e-09
-1.49887e-08
6.57928e-09
9.09151e-09
1.0139e-09
-9.77922e-09
-3.26193e-10
-6.27624e-09
1.27088e-08
1.52198e-09
-7.95454e-09
1.41977e-08
-3.90982e-09
3.17993e-09
-1.34678e-08
1.53966e-08
1.70641e-09
-1.67417e-09
-3.3509e-10
-1.98985e-08
-7.43273e-09
2.76663e-08
1.35732e-08
-8.16629e-09
-2.29733e-09
7.54441e-09
-1.15233e-08
-1.55951e-10
3.14947e-10
-1.56011e-09
-3.71891e-08
-2.26986e-08
7.89356e-09
-7.06349e-11
3.90596e-09
-6.83392e-09
1.06291e-08
6.23362e-09
-7.36482e-10
4.27393e-10
5.96111e-10
-2.87022e-10
5.97362e-09
-4.57506e-09
3.52061e-09
-4.91917e-09
-7.03925e-10
-7.4755e-10
3.30538e-10
8.70696e-10
-8.28115e-10
-2.2581e-10
-1.24138e-09
1.07229e-09
-1.73568e-08
2.48314e-09
1.42025e-09
1.34534e-08
3.27595e-10
-8.67061e-10
-1.97016e-10
-3.70018e-09
-1.46777e-08
1.02106e-09
5.67044e-09
1.16403e-08
-5.24696e-09
-1.20637e-08
1.63884e-08
5.47841e-10
-1.58585e-08
-1.07775e-09
-8.23543e-10
5.89142e-10
6.61794e-10
-1.03095e-09
5.61432e-10
4.69517e-10
-7.01386e-09
-3.85079e-09
4.48735e-09
-4.39479e-10
6.29122e-10
-1.89644e-10
1.31812e-09
-1.49741e-08
-7.04508e-10
8.66785e-09
-1.00221e-08
-1.20897e-09
-1.25676e-09
1.24676e-08
4.40204e-09
-4.16507e-09
-1.27045e-08
3.21958e-10
6.91673e-09
-7.59871e-09
6.51101e-09
-2.01134e-09
-8.34914e-09
7.69786e-09
2.66262e-09
-1.78972e-09
5.91788e-10
-1.34797e-08
-2.72237e-10
-1.67241e-10
-5.71165e-10
1.31657e-09
-7.65837e-09
7.91894e-10
1.7204e-08
-1.60752e-09
-1.46979e-08
1.58822e-08
-1.18434e-09
1.18517e-08
1.40263e-08
-1.5606e-08
-1.0272e-08
-9.01493e-10
1.50251e-09
-6.01017e-10
1.57139e-09
-2.02989e-09
4.58504e-10
2.75193e-09
-4.03478e-09
1.28286e-09
2.02222e-09
-1.69611e-09
-3.26109e-10
-1.20783e-08
2.56782e-10
1.18215e-08
2.77471e-09
-7.52484e-10
8.82932e-09
-1.50365e-08
6.43521e-09
-7.44162e-09
1.06243e-10
4.0419e-09
-4.44411e-10
-3.1301e-09
3.23634e-09
-7.74864e-09
9.1158e-09
-1.36716e-09
-9.45022e-10
4.07056e-09
9.74298e-10
1.70482e-08
-1.45213e-08
-1.5234e-09
-5.33168e-09
5.10236e-09
-1.64011e-09
-2.7237e-10
6.92972e-09
-6.91705e-09
-1.26733e-11
7.08005e-09
4.31722e-09
3.14627e-10
-1.56285e-08
1.02974e-08
1.71828e-08
5.6749e-09
8.32188e-09
8.20744e-09
-6.74195e-09
6.63016e-10
-1.27413e-08
1.45232e-09
-1.05878e-10
-1.26797e-08
3.67755e-09
-4.41202e-10
1.3906e-08
-1.33581e-08
-8.95473e-11
-1.15063e-09
-1.35838e-08
7.0557e-09
9.64597e-10
-5.89526e-11
-8.95493e-09
5.32516e-09
-3.14908e-08
-1.25653e-08
-2.30684e-09
1.28827e-09
1.3648e-08
1.10006e-08
-1.06715e-08
-1.39771e-08
1.65396e-08
-3.11165e-09
-1.34279e-08
1.79542e-09
3.81918e-09
-1.50737e-09
-1.00715e-09
-1.07061e-09
1.40362e-09
6.74133e-10
-3.19981e-10
4.53669e-10
4.62423e-10
6.22551e-08
-6.23162e-08
6.1058e-11
6.20517e-08
-6.24128e-08
3.61087e-10
8.98131e-10
6.47769e-08
-6.56014e-08
8.24476e-10
6.4173e-08
6.03938e-10
-1.57647e-10
-6.65423e-08
9.40922e-10
-6.20541e-08
6.19649e-08
8.92899e-11
1.32363e-09
-6.7866e-08
-6.21797e-08
1.25553e-10
1.20132e-08
-1.21449e-09
1.84262e-09
-3.74941e-09
3.12128e-09
4.65669e-10
-1.33137e-09
1.19908e-09
-8.73416e-10
1.53059e-09
-1.81684e-09
1.15967e-09
1.59499e-09
-1.76964e-09
4.89599e-10
-1.14706e-10
-3.30338e-09
3.14019e-09
-2.41732e-09
2.5805e-09
-9.43533e-10
-2.92399e-09
2.65304e-09
-3.93768e-09
-5.51276e-09
6.78937e-10
-7.87365e-10
1.5087e-09
1.22096e-09
-6.62348e-09
8.01513e-09
2.92557e-09
2.08204e-08
-4.28084e-09
-8.53176e-10
3.05661e-10
1.22645e-09
-1.0251e-08
-2.69381e-08
5.50546e-09
-4.52574e-09
-3.08239e-09
2.10267e-09
1.4076e-10
6.32045e-12
5.76102e-10
-2.87958e-09
3.56358e-09
8.56191e-09
9.52504e-10
-6.42283e-10
2.26164e-09
-2.56289e-09
2.35843e-09
1.46186e-08
1.30557e-08
-2.66059e-08
3.21185e-08
6.11767e-09
-2.25701e-08
-1.01534e-08
1.78725e-08
-1.75213e-08
1.06494e-08
-3.0946e-10
3.10774e-11
-1.49125e-09
-1.96952e-09
-2.11672e-09
3.6947e-09
1.45633e-08
-5.67938e-10
-1.34035e-08
1.54419e-10
-2.93951e-09
-1.38902e-10
1.5167e-08
1.7324e-08
1.3496e-08
7.51484e-10
-1.53075e-09
-1.27167e-08
-1.95911e-09
5.97098e-09
1.2167e-08
-8.70733e-10
-1.30093e-09
-3.50244e-09
2.73005e-09
3.91258e-09
2.40259e-09
1.4045e-08
4.13141e-09
-1.37744e-08
1.72485e-08
-1.66415e-09
2.92654e-09
-3.68763e-09
1.89194e-09
-4.47936e-09
1.2747e-08
-1.19696e-08
-1.37565e-08
6.18519e-10
8.65859e-09
-1.94409e-09
1.64477e-09
1.80802e-09
-8.8284e-09
4.79543e-10
-4.21643e-09
-5.9659e-09
1.20813e-08
-1.49438e-08
1.47722e-09
1.6423e-09
-2.10977e-09
1.62476e-08
-1.57802e-08
-9.69152e-10
1.38972e-08
2.60038e-09
-3.86094e-09
-1.37759e-08
7.24415e-09
-1.68354e-08
-7.93012e-09
6.43205e-09
5.82383e-09
1.41921e-08
-9.40816e-09
3.18409e-09
8.88669e-09
9.79536e-09
3.89466e-09
-4.08897e-09
2.13442e-08
-1.86894e-08
4.58935e-09
-9.90618e-09
2.29344e-09
5.25696e-09
1.34118e-08
-8.02709e-11
1.23895e-08
-1.32784e-08
-1.63251e-09
2.62055e-09
-1.79974e-09
8.11699e-10
1.07036e-08
-6.33215e-09
7.26877e-09
-1.02997e-08
1.40745e-09
-4.75576e-09
1.11252e-08
-1.16164e-08
-7.40893e-09
8.88971e-09
9.22284e-09
1.24939e-08
9.77288e-10
-1.35514e-08
1.75722e-09
8.67363e-10
-1.08014e-08
-6.72909e-09
1.01215e-08
-1.82145e-09
2.52541e-09
-8.65025e-09
4.68914e-09
-5.10011e-09
1.1183e-08
-3.49106e-09
-1.13435e-08
3.65154e-09
-4.53985e-09
1.09671e-08
2.17318e-09
1.22881e-09
-4.97976e-09
-1.7463e-08
1.04072e-08
1.20356e-08
9.03025e-10
-1.06525e-08
-9.62024e-09
1.5293e-08
1.20711e-08
2.69193e-09
-9.50606e-09
-1.31742e-08
-2.60907e-10
-1.23911e-08
3.15086e-10
-6.12064e-10
1.10188e-08
1.23573e-08
-8.04351e-09
1.60677e-08
-1.53759e-08
3.43962e-09
-4.90831e-10
1.64375e-09
1.23005e-08
-3.85625e-09
-1.23726e-08
-5.12382e-09
5.29088e-10
4.48885e-09
1.18374e-08
-7.49748e-09
7.81232e-10
-1.11869e-09
1.80655e-09
-2.32036e-09
5.99616e-09
2.59975e-08
-7.33072e-10
-1.28914e-08
1.36245e-08
2.77596e-08
-2.18718e-08
2.19755e-08
1.91891e-08
-1.24524e-08
-2.54766e-09
1.47807e-08
1.08482e-10
-1.19592e-08
-3.23511e-10
-6.00836e-09
-2.00118e-09
2.43813e-09
1.73623e-09
1.89382e-10
-1.06632e-08
1.07101e-08
-2.36254e-10
2.22105e-09
-5.51847e-09
-1.04912e-08
1.01843e-08
-6.35356e-10
-1.02764e-08
-9.52888e-12
-1.0405e-08
-2.9315e-09
-1.17206e-08
2.30881e-09
7.71513e-09
5.05614e-09
2.8409e-10
-1.14128e-08
1.13181e-08
7.04802e-10
-8.39255e-09
5.28119e-09
-7.40432e-10
2.77389e-09
-3.36349e-09
-1.28865e-08
-1.33798e-08
1.29309e-08
-9.88971e-09
-1.5784e-08
1.00452e-08
9.00085e-09
8.4097e-10
2.57996e-09
-1.54714e-08
1.07368e-08
1.68945e-09
4.05771e-09
4.01166e-10
-6.48183e-10
-4.56908e-10
-4.00924e-09
2.74235e-09
-1.67261e-09
4.07323e-10
-4.75478e-10
6.81545e-11
-2.46994e-09
1.24638e-08
2.07722e-09
2.53897e-09
-1.1605e-09
-1.8979e-09
-4.05504e-11
-2.62026e-09
-7.68894e-10
1.25856e-08
9.70213e-09
-5.43163e-10
7.14859e-09
-1.18449e-09
-5.42093e-09
-9.67693e-09
-5.09412e-09
3.19031e-10
8.82923e-11
4.5211e-09
1.41633e-09
-1.65899e-08
-6.55196e-10
-9.63088e-10
-2.16237e-09
7.7254e-10
2.5539e-09
6.20957e-08
-1.27857e-10
-6.19678e-08
6.23321e-08
1.84038e-10
-6.25161e-08
-1.41481e-08
1.31215e-10
1.44978e-08
-4.8087e-10
2.58911e-09
-2.11565e-09
2.85527e-09
1.78579e-09
-4.4023e-09
-5.89908e-10
-6.75733e-10
5.48195e-10
-1.59484e-10
6.57345e-10
-4.81873e-10
1.88004e-08
1.11871e-09
-1.5398e-08
-3.45259e-10
-1.9609e-09
1.20709e-08
2.19048e-09
1.74815e-09
5.03333e-09
-1.76102e-09
-7.73084e-08
-2.41738e-08
-4.82407e-09
1.56185e-08
2.33739e-09
-8.72937e-10
-3.41993e-09
-1.42526e-09
7.69482e-10
-6.45148e-10
-1.27618e-08
-3.08885e-10
1.30707e-08
-1.05766e-08
-6.67156e-09
1.0519e-08
-9.20496e-09
8.87659e-09
-2.10916e-10
1.95853e-09
1.22413e-08
-1.19527e-08
-2.88594e-10
7.81722e-10
5.60766e-11
9.56518e-09
1.13539e-09
-1.23479e-09
-4.01383e-10
-1.41875e-08
-5.20507e-10
-1.3298e-08
1.19929e-08
-1.13625e-08
-6.60334e-08
6.49666e-08
1.06682e-09
5.33328e-10
-5.27007e-10
1.1566e-08
-4.97773e-10
2.22957e-11
-1.886e-09
2.76143e-09
-3.36504e-09
-1.35151e-08
-1.65031e-09
2.55784e-09
-4.63535e-09
-1.37483e-08
1.79376e-09
5.6178e-09
9.36552e-09
-8.69948e-09
-5.26826e-10
2.90531e-11
-9.36349e-09
-1.25273e-08
1.52345e-10
-6.27704e-08
2.28024e-10
6.25424e-08
6.92537e-10
6.34805e-08
-2.20513e-10
-8.11936e-10
-1.42808e-08
1.21055e-10
-6.33663e-08
6.32452e-08
1.82116e-10
-6.29014e-08
6.27193e-08
5.82604e-10
6.1816e-08
1.64319e-10
-6.19803e-08
6.16287e-08
1.87302e-10
-8.78728e-08
8.84838e-08
-7.0163e-12
9.3391e-08
-9.30795e-08
-2.5038e-10
-8.66172e-08
-4.31113e-10
9.33879e-08
-1.54574e-10
-8.49043e-08
-7.72024e-10
9.35268e-08
2.221e-10
-5.18041e-10
2.0017e-09
9.24233e-08
-6.93646e-08
6.21919e-08
-6.2394e-08
-6.30073e-08
6.14526e-08
1.76141e-10
-2.99021e-09
2.66702e-09
-1.34512e-08
9.4457e-11
2.24574e-10
2.43142e-09
9.8409e-09
-1.19838e-08
3.8223e-08
-3.44596e-08
-1.64431e-08
1.3957e-08
-9.10271e-11
-2.15783e-10
3.29605e-10
9.60791e-10
-1.94687e-10
4.22902e-10
4.68625e-09
1.05968e-09
-3.85399e-09
-4.57263e-10
5.25101e-10
-3.6872e-10
-2.39332e-09
1.26733e-08
2.1838e-09
-1.44299e-08
-2.26439e-09
-3.78267e-09
5.6969e-09
1.09202e-09
-2.39879e-09
1.40455e-08
-1.23948e-09
-4.53452e-09
7.01739e-09
-7.8682e-09
-1.89828e-08
-1.29174e-08
7.63543e-09
5.90048e-09
-3.24647e-10
-5.16002e-10
3.27878e-09
1.43364e-08
1.73863e-09
-1.21563e-09
-4.90113e-10
5.27162e-10
-3.09419e-10
1.59099e-08
-4.53092e-10
-1.57657e-08
-4.4394e-09
-2.6173e-09
2.87422e-10
-2.35973e-10
4.30599e-09
-1.82261e-08
6.67734e-10
-1.73583e-09
-2.36461e-09
-2.27613e-09
1.51703e-08
-9.05559e-08
-1.48422e-10
9.16873e-08
-2.11499e-10
-8.9153e-08
-4.73133e-10
9.30564e-08
-3.03862e-10
-9.28804e-08
-6.57048e-10
-1.83127e-09
1.60712e-08
9.20039e-08
-1.88896e-10
2.33517e-11
-2.43604e-10
1.10905e-08
2.16387e-09
-9.8246e-09
-1.18211e-08
-5.57492e-09
8.45773e-09
1.38283e-09
-6.915e-09
-6.47823e-09
9.10227e-09
-2.57229e-10
1.01558e-08
1.91514e-08
-1.76278e-08
3.01123e-09
-1.23827e-08
3.02139e-09
-7.00856e-08
4.05221e-09
-2.03257e-08
-1.26107e-08
-6.22582e-10
-5.77321e-09
-1.53935e-08
9.20754e-09
-1.51675e-08
5.99003e-10
5.07674e-10
-1.46812e-09
-1.6058e-08
1.66226e-08
9.48296e-09
-9.50513e-09
-5.52368e-09
1.48186e-08
-1.60592e-09
8.32743e-10
-1.52418e-09
5.97432e-10
1.21671e-08
3.4168e-09
7.0936e-08
-1.78965e-08
9.58333e-10
-1.45626e-08
-3.17788e-10
-3.61968e-10
-2.2286e-10
6.08475e-08
-6.11513e-08
-6.33429e-08
-6.30903e-08
2.98446e-12
-3.01208e-10
-9.25822e-08
-6.0421e-08
6.24227e-08
6.50711e-08
-6.01989e-08
6.45531e-08
-6.03535e-08
6.37811e-08
-6.06038e-08
6.33499e-08
9.23168e-08
4.01279e-10
-6.56132e-09
7.49781e-08
-6.49999e-08
1.26437e-10
-1.26437e-10
2.08718e-09
-3.83739e-10
1.54849e-08
-1.46213e-10
1.46213e-10
5.11251e-10
1.44934e-09
1.39795e-08
1.28733e-08
-2.66275e-09
3.66146e-09
6.4043e-09
1.93069e-09
4.77648e-10
-3.41766e-10
-2.87542e-09
1.43272e-08
1.48066e-08
-4.32009e-09
1.15906e-08
2.77003e-10
2.18734e-10
3.00602e-09
-1.04288e-09
-1.79285e-09
-5.92954e-09
-1.36199e-10
-5.01635e-10
1.52032e-08
3.83949e-10
1.75745e-10
1.65195e-08
-2.55478e-08
1.71386e-08
2.54871e-09
1.50192e-09
2.16405e-09
-3.50524e-09
1.8905e-08
-1.75638e-08
-1.45799e-10
9.20288e-10
-1.44472e-09
-7.91569e-08
-7.08093e-08
1.47822e-09
-1.15961e-09
7.36518e-10
2.28304e-08
1.82964e-08
-6.4759e-09
1.81975e-10
-4.51089e-09
-1.99569e-09
2.99347e-08
1.26654e-10
1.48857e-08
7.35843e-08
1.11015e-10
5.76435e-10
-2.29341e-10
-2.99869e-10
-3.89562e-09
2.39235e-08
-1.4734e-08
1.23889e-09
-1.39855e-08
-9.81371e-11
2.01023e-08
-2.82344e-08
9.00172e-10
2.57799e-09
-7.07743e-10
)
;

boundaryField
{
    back
    {
        type            empty;
        value           nonuniform 0();
    }
    ingreso
    {
        type            calculated;
        value           nonuniform List<scalar> 
14
(
-1.54286e-08
-1.54288e-08
-1.54288e-08
-1.54288e-08
-1.54286e-08
-1.54283e-08
-1.54288e-08
-1.54288e-08
-1.54286e-08
-1.54286e-08
-1.54288e-08
-1.5428e-08
-1.5428e-08
-1.54286e-08
)
;
    }
    salida
    {
        type            calculated;
        value           nonuniform List<scalar> 2(1.01482e-07 1.14517e-07);
    }
    front
    {
        type            empty;
        value           nonuniform 0();
    }
    defaultFaces
    {
        type            calculated;
        value           uniform 0;
    }
}


// ************************************************************************* //
