/*--------------------------------*- C++ -*----------------------------------*\
  =========                 |
  \\      /  F ield         | OpenFOAM: The Open Source CFD Toolbox
   \\    /   O peration     | Website:  https://openfoam.org
    \\  /    A nd           | Version:  7
     \\/     M anipulation  |
\*---------------------------------------------------------------------------*/
FoamFile
{
    version     2.0;
    format      ascii;
    class       volVectorField;
    location    "29.5";
    object      U;
}
// * * * * * * * * * * * * * * * * * * * * * * * * * * * * * * * * * * * * * //

dimensions      [0 1 -1 0 0 0 0];

internalField   nonuniform List<vector> 
591
(
(0.000807806 -4.49817e-05 1.22531e-18)
(0.000783776 -3.58496e-05 -6.62897e-19)
(0.000850221 -6.04674e-05 5.73389e-20)
(0.000836296 7.17125e-06 -1.4788e-19)
(0.000820901 1.78983e-05 2.23987e-19)
(0.000775745 -3.31328e-05 -1.38473e-19)
(0.000538569 -0.000380272 8.01078e-19)
(0.000795413 -4.84053e-06 2.0811e-18)
(0.00576974 0.0024889 9.8798e-19)
(0.000782203 -2.01203e-05 2.41445e-18)
(5.90507e-05 0.000178405 1.21879e-18)
(0.00089245 0.00130679 9.40955e-21)
(0.000788983 1.11697e-05 1.28958e-18)
(0.00156395 0.00236354 -7.87885e-19)
(0.000797752 1.85716e-05 -4.38429e-19)
(0.000125093 -0.000252273 2.54831e-22)
(0.000131682 0.00066806 7.05769e-19)
(0.000831272 2.34975e-05 -4.92836e-19)
(0.00198365 0.000375604 4.73729e-19)
(0.0013444 0.000279873 -2.47295e-19)
(0.000829585 1.03677e-05 3.69164e-19)
(0.00337375 0.00656036 -8.24981e-20)
(3.57351e-05 7.62945e-05 2.71193e-19)
(0.000822443 6.06995e-06 -4.51698e-19)
(1.78346e-05 -2.26699e-05 3.59245e-19)
(0.00075636 2.51149e-05 0)
(8.98396e-05 0.000480281 1.60101e-19)
(0.000515083 3.00757e-05 -1.79046e-19)
(0.000744602 5.4299e-05 1.13945e-18)
(0.000821898 1.22636e-05 5.84263e-19)
(6.69979e-05 -9.5318e-07 -2.93888e-24)
(4.57152e-05 -5.37802e-05 3.52565e-19)
(4.59948e-05 -4.18256e-06 -4.64425e-20)
(5.46376e-05 -1.00406e-05 0)
(6.27892e-05 -1.46607e-05 1.13204e-18)
(0.00116403 0.000128889 1.80138e-19)
(3.98081e-05 -7.21119e-06 4.47638e-20)
(0.00082173 1.68012e-05 3.68552e-23)
(3.42951e-05 5.09646e-05 2.66317e-19)
(5.71132e-05 -0.000145758 -8.55767e-19)
(0.000557382 -0.000187547 9.58394e-19)
(3.29842e-05 -9.43118e-06 4.55322e-20)
(0.000791701 -6.76997e-06 -1.55969e-18)
(0.000820567 1.92301e-05 -6.80856e-19)
(2.37292e-05 -1.13552e-05 0)
(6.287e-05 1.08396e-05 8.5279e-20)
(0.00132484 0.00451574 8.937e-19)
(8.51483e-05 2.27745e-05 8.64543e-20)
(0.000791006 2.80829e-05 0)
(0.000365846 -0.00014694 6.78626e-19)
(0.000370173 0.000280546 5.12419e-21)
(0.000384381 7.27092e-05 -1.0049e-18)
(0.00634482 0.010941 -7.68103e-19)
(0.0062252 0.0107936 1.5367e-20)
(0.00561169 0.0103766 1.45654e-18)
(0.000807165 -1.29669e-05 0)
(7.41588e-05 3.76946e-05 0)
(0.000324069 3.27368e-05 8.89251e-24)
(7.14859e-05 1.52383e-05 -3.46829e-19)
(0.000830796 -5.15905e-06 0)
(0.000609393 2.65375e-05 3.1794e-19)
(0.000812294 -1.41639e-07 2.18554e-18)
(0.000773825 2.99217e-06 -5.42682e-19)
(0.000781628 1.88494e-05 -3.12727e-19)
(0.00171415 0.000505129 5.43966e-19)
(0.000784774 -1.39655e-06 -1.14124e-18)
(0.000813294 -2.77091e-06 -5.13796e-19)
(9.33499e-05 3.52827e-06 -1.73596e-19)
(0.00067558 0.00230034 0)
(0.000815183 1.50496e-05 0)
(0.000750091 1.78625e-05 -1.37633e-18)
(4.3763e-05 1.96589e-05 0)
(0.000281271 0.000276954 3.27163e-19)
(5.03704e-05 -2.03814e-05 0)
(5.02389e-05 -6.96531e-06 1.59644e-19)
(3.1623e-05 -5.59192e-05 -3.3704e-20)
(0.000765985 6.25538e-05 2.47392e-19)
(5.07063e-05 1.39428e-05 0)
(0.000782212 5.78052e-05 4.43906e-19)
(0.000749171 0.000299841 2.10956e-19)
(0.000961662 5.96109e-05 -3.98436e-20)
(4.89082e-05 2.7805e-05 -4.52348e-20)
(7.35423e-06 -4.13719e-05 0)
(0.000419925 0.000224503 1.70358e-19)
(2.26909e-06 3.35701e-05 0)
(0.000756934 1.93096e-05 -5.99543e-19)
(0.000557956 -0.000114041 0)
(7.45604e-05 2.37099e-06 -1.74664e-19)
(5.61679e-06 -5.53802e-05 0)
(0.00080861 0.000247891 -3.41654e-19)
(5.21646e-06 -2.5674e-05 0)
(0.000413567 0.000324383 -1.23852e-23)
(0.000509571 0.000117148 0)
(0.000792308 4.85455e-05 -2.56699e-25)
(3.08093e-06 2.24966e-05 -4.22168e-20)
(0.000433825 6.97853e-06 1.76554e-18)
(0.00101862 7.4356e-05 4.16545e-20)
(0.000945092 3.80312e-05 6.41179e-22)
(0.000723692 0.000653051 2.69772e-19)
(4.88931e-06 6.47599e-05 0)
(8.2598e-06 -0.000103664 -3.12714e-19)
(1.43645e-05 -0.000191133 -1.10144e-18)
(1.65036e-06 0.000100418 -5.9652e-19)
(0.000702778 -6.86275e-06 0)
(4.89355e-06 0.000127584 0)
(0.000790594 7.51943e-06 2.21103e-18)
(0.000761823 2.35703e-05 1.51272e-18)
(0.000400019 -3.74224e-05 0)
(5.27411e-05 0.000231706 -8.95615e-19)
(-1.55903e-06 0.000203756 4.9653e-19)
(7.99811e-05 0.000462275 6.25749e-19)
(0.000294359 0.000109683 -9.37745e-19)
(0.000806012 1.33713e-05 1.3636e-19)
(0.000266496 -8.26869e-06 5.31794e-19)
(3.11464e-06 4.57124e-05 0)
(3.73196e-05 0.000315398 -1.0944e-18)
(0.000312768 0.000329462 -1.61859e-19)
(7.87531e-06 -7.84303e-05 1.46754e-19)
(0.000653784 0.000791834 0)
(0.000358256 0.000392289 5.74971e-20)
(0.000802189 3.33886e-07 1.07217e-18)
(0.000778392 -1.31137e-05 -2.68804e-18)
(9.26397e-06 -0.000134783 0)
(0.00073666 -1.7942e-05 -1.11582e-19)
(0.000318593 -6.33213e-05 1.24463e-18)
(0.00270423 0.000797707 -3.36029e-19)
(-8.68934e-07 0.000159423 -6.13359e-19)
(-8.65914e-06 0.000196534 1.61986e-18)
(0.000820685 1.84166e-05 -3.89362e-20)
(7.31987e-05 -7.90086e-06 -7.50979e-19)
(0.000782487 2.83294e-05 -3.88041e-19)
(0.000869775 2.79305e-05 -4.10221e-20)
(5.81051e-05 0.000369901 -5.97126e-19)
(0.000467921 8.29426e-05 -4.94452e-19)
(5.76456e-05 -2.0753e-06 1.56322e-19)
(0.00081687 -2.2294e-06 -1.05953e-18)
(0.00162124 0.000209916 -1.13784e-18)
(1.30497e-06 7.89064e-05 4.96605e-19)
(0.000797134 2.16495e-06 -4.99204e-19)
(0.000881844 0.000539577 -7.85913e-20)
(0.000131246 0.000842943 0)
(0.000556401 6.80603e-05 0)
(0.000270095 6.41452e-05 -1.61138e-18)
(6.86676e-05 6.55015e-05 -1.37555e-18)
(3.54453e-05 2.43616e-05 0)
(0.00425719 0.00742209 -1.02336e-20)
(0.00422601 0.00737477 3.1477e-20)
(0.00442486 0.00757355 -4.63583e-21)
(0.00420829 0.00773745 0)
(0.00420099 0.00760115 5.77602e-19)
(0.00424907 0.00741022 -9.20732e-20)
(0.00421234 0.00804508 4.84537e-19)
(0.00428572 0.00743119 0)
(0.00420754 0.00854147 6.16969e-19)
(0.00431687 0.00744874 2.24343e-19)
(0.000804199 -3.62919e-06 -1.37104e-18)
(0.000749494 5.16566e-05 0)
(0.000218809 7.01613e-05 1.27819e-19)
(5.69191e-05 2.01132e-05 8.72781e-20)
(8.42398e-05 5.21742e-05 6.80741e-19)
(0.000113426 4.98635e-05 -3.42028e-19)
(0.000108972 1.3954e-05 0)
(5.55458e-05 7.62429e-06 8.1919e-20)
(0.000204371 0.00014572 0)
(0.00017195 5.79354e-05 -5.24796e-20)
(0.000335418 0.000231323 -5.09755e-21)
(6.11045e-05 4.92614e-05 -4.38121e-19)
(9.8091e-05 3.53267e-05 -8.53379e-20)
(9.61856e-05 6.9965e-05 1.31332e-21)
(0.000247458 0.000371993 -6.66813e-19)
(0.000135924 0.00106195 0)
(4.66235e-05 5.84898e-05 3.43426e-19)
(0.000189604 0.00180743 0)
(0.00020618 0.000260645 7.05353e-19)
(4.5225e-05 -5.82062e-06 1.11447e-19)
(0.000466542 0.0001704 -1.72477e-19)
(0.000746298 2.88441e-05 -1.89124e-18)
(4.96944e-05 -6.59422e-08 4.10546e-24)
(0.000156752 3.71912e-05 2.24821e-19)
(0.000239442 0.000108044 -9.00263e-20)
(0.000872342 0.000706575 3.35258e-19)
(0.000755344 0.00161844 -9.21928e-21)
(0.00038638 0.00139488 -9.43934e-21)
(0.00101139 0.000559498 0)
(0.00011372 -1.04848e-05 1.11995e-18)
(0.00012594 2.70525e-05 -4.43626e-20)
(0.000422336 -0.000254657 -1.13697e-18)
(0.000800476 3.09122e-05 0)
(0.000185223 2.63553e-05 3.63648e-19)
(0.000291759 0.00134689 0)
(0.00103453 0.000749959 -7.30914e-20)
(0.00081785 4.17565e-05 -1.84601e-19)
(9.03104e-05 -1.82469e-05 -3.00316e-19)
(0.000805916 0.00031251 -2.08276e-20)
(7.40372e-05 -2.21874e-05 -6.00095e-19)
(0.000226283 0.000184217 8.64736e-20)
(0.000225968 0.000312971 -3.4535e-19)
(0.000868558 0.000238105 0)
(0.000792259 4.55829e-05 0)
(0.000258939 0.000151914 1.77026e-19)
(0.000235012 2.00533e-05 1.61552e-24)
(0.000184861 0.000213958 0)
(0.000281981 0.000647407 -5.56066e-21)
(0.00033062 1.87323e-05 0)
(0.000339924 0.000598173 0)
(0.000114984 9.20311e-05 -1.34812e-21)
(0.000808846 4.68615e-07 -9.38532e-19)
(0.000814497 -3.4576e-06 7.82056e-19)
(0.00013451 6.88724e-05 -1.50012e-19)
(0.000937604 0.000152018 8.518e-20)
(0.000822053 4.89093e-05 3.32683e-19)
(0.000795205 1.59222e-05 -2.93998e-19)
(0.000990849 0.000403207 0)
(0.000426187 0.000128241 6.25105e-19)
(0.000879918 0.000315687 2.09368e-20)
(0.000553855 0.000165159 0)
(0.000273269 0.000441052 4.10026e-19)
(0.000258284 0.000226716 -8.45014e-20)
(0.00109117 0.000379199 -7.83027e-19)
(0.000596766 0.000115592 -1.79494e-19)
(0.000788925 7.94725e-05 -7.42423e-21)
(0.000821008 2.64043e-05 9.35062e-20)
(0.00010562 -9.16437e-05 -1.98346e-18)
(0.000724543 0.000379726 2.19458e-19)
(0.000641455 6.59027e-05 2.30808e-20)
(0.000688895 0.000274568 1.54672e-23)
(0.000712075 0.000449282 -4.09917e-19)
(0.000830116 3.95383e-05 8.87913e-20)
(7.68369e-05 8.93147e-05 0)
(0.00063896 0.00041704 -4.66129e-20)
(0.000185229 0.000109218 0)
(0.00036716 0.00050587 -2.65076e-19)
(0.00030938 0.000179088 0)
(0.000658189 0.000203201 3.55623e-19)
(0.00063094 0.000266978 -4.37725e-20)
(8.33836e-05 0.00010997 6.19806e-19)
(0.000869699 0.000111187 -1.63575e-18)
(6.45667e-05 2.70556e-05 2.57467e-19)
(0.000868492 5.03276e-05 -1.65808e-18)
(0.000812537 6.89894e-05 1.61494e-19)
(0.000793453 1.44445e-05 1.93219e-18)
(0.000790554 1.13916e-05 -1.3151e-19)
(0.000705559 7.46286e-05 0)
(0.00081217 3.35652e-05 8.76987e-19)
(0.000930236 0.000234496 -4.27597e-19)
(0.00074889 7.86902e-05 -4.83355e-19)
(0.000763234 0.000227204 -8.82232e-20)
(0.000239185 -0.000115103 -2.08147e-18)
(0.000717544 9.12112e-05 8.88223e-19)
(0.000629877 0.000594285 0)
(0.000126531 -0.000100314 0)
(0.00118528 0.000467283 4.97611e-19)
(0.000765385 -0.00010198 -3.2341e-18)
(0.00129874 0.000423168 5.76345e-19)
(0.00125838 0.00071222 -6.398e-20)
(0.000788697 4.94942e-05 -2.10845e-19)
(0.000817697 7.35105e-05 -1.41778e-18)
(0.000805233 2.24759e-05 1.57229e-18)
(0.000800912 1.92177e-05 9.68449e-20)
(0.000661058 0.000344311 -4.40867e-20)
(0.000106697 0.00013839 9.99862e-24)
(0.000716672 -6.25105e-05 2.65381e-19)
(0.000246686 -0.000202105 -7.37235e-19)
(0.000603054 0.000191209 0)
(0.000678652 2.45725e-05 9.91465e-20)
(0.000656601 9.10084e-06 -3.81253e-19)
(0.00037798 0.000179747 3.93619e-20)
(0.000780324 0.00049794 -1.65639e-19)
(0.000155017 8.79565e-05 2.44103e-25)
(0.000800344 0.000393729 0)
(0.000958602 0.000322006 4.16246e-20)
(0.000727329 -9.8338e-05 -6.16978e-19)
(0.000338269 0.000115424 4.98131e-19)
(0.000889398 0.000418713 0)
(5.5281e-05 3.65238e-05 1.33854e-19)
(0.000467742 0.000273237 2.14167e-19)
(0.00044715 -9.70784e-05 -7.09924e-19)
(0.00017928 -0.000134299 -1.06015e-18)
(0.000804807 1.03472e-05 -4.75443e-19)
(0.000801164 -0.000113323 -1.93343e-19)
(0.000565498 0.000720273 -1.17536e-18)
(0.000829292 4.80726e-05 -6.62426e-20)
(0.000741171 -3.94686e-05 1.26045e-18)
(0.000667012 9.85523e-05 2.28044e-20)
(0.000511963 0.000218406 -1.65851e-19)
(4.14301e-05 -2.52327e-05 -8.76759e-20)
(0.00019353 -2.5533e-05 2.4085e-18)
(2.96569e-05 9.67853e-07 -1.95014e-19)
(0.000786853 9.08083e-05 3.61319e-19)
(0.000634785 0.000140307 0)
(0.000203356 -5.38501e-05 -1.04915e-18)
(0.000131226 -1.74286e-06 3.13096e-19)
(0.000131311 -3.1461e-05 -7.99609e-25)
(0.000780562 0.000115287 -3.18827e-19)
(0.000160096 -3.91856e-06 0)
(0.000568923 0.00024406 0)
(0.000111314 0.000339275 -3.63205e-19)
(0.000844305 0.00010298 2.09976e-18)
(2.41473e-05 1.70455e-06 0)
(0.000847003 3.83394e-05 0)
(5.37043e-05 -2.67614e-05 0)
(0.000811521 2.8213e-05 -4.43572e-21)
(0.00080664 -6.52581e-05 0)
(0.00426175 0.0074298 6.54634e-20)
(0.00435892 0.00748303 1.44578e-19)
(0.00083931 6.54211e-06 0)
(0.000755237 -5.85015e-05 8.13663e-19)
(0.000154152 0.000135995 1.49359e-19)
(0.000844942 7.55738e-05 7.93459e-19)
(0.000134571 0.000112665 2.34638e-20)
(0.000753519 -4.85192e-05 6.27262e-19)
(4.04609e-05 1.22787e-05 0)
(3.67126e-05 -1.70491e-05 -4.48962e-20)
(0.000870017 5.434e-05 -4.85626e-19)
(4.57167e-05 -3.60027e-05 -6.70398e-19)
(0.000738047 0.000120402 -4.23275e-20)
(0.00016784 0.000172965 -1.88288e-19)
(0.000807684 1.34462e-05 0)
(0.00467981 0.0081587 9.27394e-22)
(0.000164973 0.000781799 3.34058e-19)
(0.000136202 -4.77036e-05 -9.1544e-19)
(7.43101e-05 -3.52547e-05 -1.16995e-18)
(0.000757042 1.87512e-05 1.89888e-20)
(0.000569487 0.00041451 0)
(0.000400704 0.000434406 -2.56578e-19)
(0.000110171 -5.16023e-05 1.18484e-18)
(0.000715303 3.39164e-06 7.68221e-20)
(4.85939e-05 2.57117e-06 4.07489e-19)
(0.000650077 -5.96602e-05 1.17304e-18)
(0.000804194 2.63256e-05 -5.98229e-19)
(8.80537e-05 -5.49098e-05 1.71082e-18)
(0.000835188 3.71395e-07 -2.88008e-24)
(0.00073266 1.07557e-05 -3.76987e-20)
(0.000853216 5.71815e-05 0)
(0.000805591 3.55477e-05 0)
(0.00592888 0.00723932 2.58675e-19)
(3.10472e-05 9.16198e-07 -1.1968e-19)
(0.000173334 -7.81133e-05 7.73665e-19)
(0.000707602 0.000120796 -6.97259e-19)
(3.5346e-05 -8.04716e-07 2.01652e-19)
(0.000572795 -2.28619e-05 -7.24666e-19)
(0.00072017 2.17259e-05 1.54928e-18)
(0.000686168 0.000154585 -3.55829e-19)
(0.000802805 -2.21132e-05 3.54472e-19)
(9.5636e-05 -2.89956e-05 1.11723e-18)
(0.000778389 9.09812e-06 -3.19572e-19)
(0.000850221 5.07449e-05 0)
(0.000526557 0.000302713 4.21451e-20)
(0.000839386 4.25409e-05 -9.26834e-19)
(3.08831e-05 -3.9853e-07 9.1181e-19)
(0.000826502 3.80762e-05 9.4116e-19)
(0.000835842 -1.80711e-05 -9.64094e-19)
(0.000705435 9.03109e-06 -5.69426e-19)
(0.000485455 -5.06117e-05 -5.2625e-19)
(0.00433019 0.00744813 2.49454e-19)
(0.00423125 0.00753459 -2.34381e-19)
(0.00422315 0.00759 2.69502e-19)
(0.00426183 0.00743022 1.66619e-19)
(0.000842944 -4.52717e-06 1.42916e-19)
(0.00447398 0.00750456 0)
(0.00440097 0.00751529 -3.84523e-19)
(4.56381e-05 -3.14364e-07 -9.97534e-19)
(0.00416948 0.00747219 -6.34197e-20)
(0.00413973 0.00743078 -2.21989e-19)
(0.00602786 0.0106031 0)
(0.00654796 0.0111818 3.69873e-20)
(0.00600801 0.0105727 0)
(0.00656629 0.0112087 1.32251e-19)
(0.00599506 0.0105965 2.69896e-19)
(0.00660991 0.0112271 1.23862e-20)
(0.00593263 0.0106098 -7.77177e-19)
(0.0066424 0.0111461 7.82958e-21)
(0.00390213 0.00920478 -1.91061e-19)
(0.00418831 0.00749491 3.76681e-21)
(0.00424366 0.00755959 7.9334e-20)
(0.0041431 0.00743339 4.12549e-20)
(0.000850076 0.000178379 4.47127e-20)
(1.75999e-05 2.40522e-06 0)
(0.000654756 -0.000151545 0)
(0.000728139 3.36517e-05 0)
(0.002443 0.00110373 4.186e-21)
(0.000732407 -2.51151e-05 1.71246e-19)
(4.71512e-05 7.90667e-06 4.54551e-20)
(2.00462e-05 -3.32157e-05 1.65419e-18)
(0.00083762 2.34594e-05 0)
(3.26353e-05 1.57532e-05 -1.91933e-19)
(0.000145059 0.000231544 0)
(3.16825e-05 -1.30827e-06 0)
(2.62707e-05 -2.00366e-06 0)
(0.000796736 0.000124632 1.13187e-20)
(0.000813937 -6.18165e-07 1.7777e-19)
(3.36695e-05 0.000312587 -7.21189e-24)
(0.000161404 0.000278392 -1.84375e-18)
(0.000591173 0.00033834 -8.57874e-20)
(0.000886791 0.000128915 6.03108e-19)
(0.000708278 -0.000395269 6.69515e-19)
(0.000326856 0.0011143 0)
(0.000454694 0.000557818 2.71729e-18)
(9.67096e-05 0.000154058 -1.80272e-18)
(3.76693e-05 4.82634e-07 0)
(0.000823701 -2.78666e-05 3.61083e-20)
(2.06616e-05 4.3325e-05 1.64624e-18)
(0.00089597 2.59711e-05 2.71596e-19)
(5.57479e-05 -0.000173581 3.79025e-18)
(0.000924061 4.09447e-05 -2.69396e-19)
(0.00140286 0.000126348 7.47854e-19)
(4.48646e-05 -1.25824e-05 8.26611e-20)
(4.46772e-05 7.5888e-06 -8.59306e-19)
(4.81521e-05 0.000156119 0)
(0.000888828 8.59796e-05 5.98075e-19)
(0.000484473 0.000370758 2.37374e-19)
(0.000781078 1.71968e-05 -3.88668e-20)
(0.000750764 -1.57148e-05 2.5605e-19)
(0.000710548 -0.000229221 0)
(0.00632166 0.0108977 -1.68108e-19)
(0.0063779 0.0109743 4.0601e-19)
(0.00615896 0.0107268 -6.1862e-19)
(0.00650156 0.0111304 -8.08534e-20)
(4.0985e-05 0.000124108 8.01381e-19)
(0.000889795 5.6665e-05 1.55702e-22)
(0.00640573 0.011 -3.86929e-19)
(0.00628111 0.0108448 5.4809e-19)
(0.00608004 0.0106705 -4.15511e-19)
(0.00652413 0.0111633 -6.82155e-20)
(9.09943e-05 0.00055902 -2.02102e-20)
(0.000161493 -0.00018804 -7.9318e-19)
(0.000767797 -7.18753e-06 -7.59556e-19)
(0.000709828 0.000219856 0)
(0.000782582 1.76124e-06 0)
(0.000184346 0.000393442 3.36625e-19)
(0.000597645 0.000552859 -5.41975e-19)
(1.93727e-05 -2.86863e-06 1.78594e-19)
(0.000209464 0.000463792 -7.39105e-19)
(0.00100373 0.000974746 -1.1282e-19)
(0.000725737 0.00017163 0)
(0.000773194 0.00016995 1.31173e-19)
(0.00637435 0.00587581 1.12905e-18)
(0.000713566 0.00114339 8.28739e-20)
(4.43398e-05 4.38897e-05 -7.45506e-20)
(0.000815247 4.41184e-05 0)
(0.000872394 2.1269e-05 -3.57368e-20)
(4.3121e-05 5.87466e-06 -1.96856e-19)
(3.7105e-05 7.30946e-06 1.93163e-19)
(0.000819624 2.04753e-05 5.36529e-19)
(0.00095822 0.000104486 6.59254e-19)
(0.000674993 4.22595e-05 0)
(0.000223132 -0.000302796 -3.98782e-19)
(0.000891686 0.000143828 3.90094e-19)
(3.55672e-05 -8.17052e-05 2.03342e-19)
(0.00144852 0.00037025 -2.58755e-18)
(0.000703438 -7.55619e-07 0)
(0.000777248 0.000140712 3.7592e-19)
(9.08826e-05 0.000407839 0)
(0.00118065 0.00816771 4.62199e-19)
(0.000465496 0.000508212 -1.2252e-18)
(0.000539367 0.000971626 -1.83925e-19)
(0.000863562 2.51315e-05 -1.45684e-19)
(1.8446e-05 3.04565e-05 0)
(0.000913737 7.33061e-05 6.12431e-19)
(0.00409025 0.00738585 8.15637e-20)
(0.00417011 0.00748027 4.73987e-20)
(0.00449617 0.00750967 4.54449e-19)
(0.0044424 0.00754084 -3.23104e-19)
(0.00647303 0.0111121 8.09399e-20)
(0.00390597 0.00714475 -1.17078e-21)
(0.005513 0.00779288 -5.64889e-19)
(0.00408904 0.00736678 5.22165e-21)
(0.00518987 0.00785332 5.11749e-19)
(0.0040689 0.00732792 -4.8436e-20)
(0.00495337 0.0077112 0)
(0.00407047 0.00734614 -8.54168e-20)
(0.00473928 0.00758374 4.92765e-19)
(0.00408177 0.0073664 8.71927e-20)
(0.00457231 0.00752142 0)
(0.00427709 0.00743357 1.71741e-19)
(0.00424125 0.00760196 5.86089e-19)
(0.00446624 0.00752397 -5.47959e-19)
(0.00438649 0.0075005 3.71236e-19)
(0.00423595 0.00753255 2.61951e-19)
(0.00642621 0.0110392 -4.89574e-21)
(0.00410458 0.00739592 3.12521e-20)
(0.00645199 0.011068 0)
(3.01481e-05 8.91792e-06 -1.90068e-19)
(0.00198166 0.00652781 2.28571e-19)
(0.000843762 -1.07299e-05 1.09142e-19)
(0.000855371 1.86907e-05 0)
(3.6163e-06 3.68429e-06 -3.9955e-19)
(7.09836e-05 -0.000198826 6.92686e-19)
(2.44489e-05 6.48996e-05 2.0909e-18)
(0.000808442 0.000186135 -9.01856e-20)
(0.000776572 1.06675e-05 6.98917e-19)
(4.08619e-06 -4.21102e-06 3.10337e-19)
(2.69742e-05 -4.38633e-05 -1.84739e-18)
(0.000744862 2.44962e-05 1.61592e-19)
(0.000848814 0.0001275 -3.0757e-20)
(0.0007736 -7.27022e-06 1.46823e-19)
(0.000405237 0.000656904 0)
(0.000117817 -0.000152788 1.15271e-18)
(0.000841936 1.80866e-05 1.5239e-19)
(2.35212e-05 2.86309e-05 0)
(0.000104023 0.000566287 -6.31789e-19)
(0.000606197 0.00060119 1.31887e-18)
(0.000340361 0.000727714 0)
(0.000772095 -1.49879e-05 0)
(0.000778483 2.65167e-05 1.16946e-18)
(2.3742e-05 5.40787e-05 -3.51835e-18)
(2.14995e-05 1.05709e-05 3.74031e-19)
(0.000113604 0.000155866 0)
(6.22214e-05 -4.47005e-05 0)
(7.01987e-05 0.000122156 2.01192e-19)
(0.000907949 0.000173174 3.50853e-19)
(0.000795763 -1.06217e-06 -1.38484e-18)
(2.6663e-05 3.93517e-05 0)
(0.000573624 5.5253e-05 -6.02362e-20)
(0.000784952 3.33548e-05 -1.5481e-19)
(0.000826012 1.48777e-05 1.0344e-18)
(0.000254654 0.000546805 6.3284e-19)
(0.000837822 0.000147169 0)
(3.08587e-05 -3.1568e-05 5.3927e-19)
(4.46317e-06 -1.40434e-05 -3.20307e-19)
(0.00108744 1.31673e-05 0)
(0.00100226 0.00221561 0)
(0.0010343 -5.17171e-05 0)
(0.000980487 0.000193611 4.27703e-19)
(0.000819702 -1.74469e-05 -2.81981e-19)
(0.000899002 0.000121857 -6.85606e-19)
(0.000780137 6.86312e-06 0)
(4.44789e-05 7.7874e-05 -1.71753e-19)
(0.000173005 0.000331303 1.08222e-18)
(0.000785036 3.54749e-05 1.69367e-23)
(0.00106562 0.000189145 -6.69107e-19)
(0.00108129 0.000117149 0)
(3.67405e-06 1.23114e-05 2.51306e-19)
(2.58464e-05 -2.09149e-05 -1.94528e-19)
(0.000666762 3.07918e-05 6.88975e-21)
(4.53326e-05 -0.000109836 0)
(0.00102721 0.000248889 9.51468e-19)
(0.00502683 0.00974385 -2.83741e-19)
(0.00311691 0.00962398 1.27378e-18)
(8.402e-05 -0.000121191 -1.91564e-19)
(8.37604e-05 -8.32927e-05 1.86168e-18)
(0.00118845 0.000222448 1.67061e-19)
(0.00132087 0.00106072 2.3431e-19)
(0.000824975 7.70605e-06 -7.36666e-19)
(0.000216656 0.000938699 -2.39126e-19)
(0.00078348 0.000884785 -2.18789e-19)
(0.000783365 -8.77437e-06 0)
(0.000100533 0.000686898 0)
(9.84501e-05 0.000287565 -4.84536e-23)
(0.000751002 -2.18986e-05 -1.9292e-23)
(0.000807997 2.46474e-05 1.51426e-19)
(0.00261717 0.00203492 -1.23164e-18)
(0.00175391 0.00924146 -1.17327e-19)
(0.000820626 2.80103e-05 4.84694e-19)
(0.00636097 0.00403807 -1.75336e-19)
(0.00674638 0.011559 -1.32293e-20)
(0.00473345 0.00785188 4.74269e-21)
(0.000799001 3.71747e-05 -2.17625e-18)
(0.00082066 3.50662e-05 -5.72687e-24)
(1.5449e-05 -1.20131e-05 -3.48386e-19)
(4.88254e-05 9.97031e-05 -3.49658e-19)
(8.10806e-05 0.000283745 8.76716e-19)
(1.56897e-05 2.05431e-05 4.9095e-19)
(9.1062e-05 0.000241283 3.70147e-19)
(0.000819068 3.71428e-05 0)
(0.0053522 0.00948894 1.96871e-20)
(0.00152095 0.000613931 -2.62015e-20)
(0.000821778 2.23516e-05 3.55895e-19)
(6.34198e-05 -9.55445e-05 0)
(0.00184607 0.000753335 5.46262e-19)
(1.38028e-05 1.11364e-05 -2.70454e-19)
(3.93631e-05 3.41888e-05 9.72899e-20)
(0.00131835 0.00137508 6.37061e-19)
(0.000755635 3.24364e-05 1.81093e-19)
(1.21619e-05 -3.36006e-06 -1.70396e-19)
(0.00203598 0.00154494 -1.05692e-18)
(0.000128355 0.000188893 -8.19586e-19)
(0.00392327 0.00847559 -1.09116e-18)
(1.0973e-05 2.96515e-06 8.82402e-20)
(0.000204731 -0.000313357 -1.24698e-18)
(6.68704e-05 -6.10568e-05 4.06109e-20)
(0.00149849 0.000962788 0)
(0.0010168 0.000143225 -4.23711e-22)
(0.000442828 0.000855827 -4.0258e-20)
(0.000803806 2.02176e-05 -2.31642e-19)
(8.68743e-05 0.000195722 7.36248e-19)
(5.2727e-05 -7.23565e-05 4.0449e-19)
(2.23053e-05 1.91491e-05 -9.48152e-20)
(3.87612e-05 0.000104771 -3.20623e-19)
(0.000195628 -0.000355218 -5.40135e-19)
(0.00323379 0.00343022 2.96575e-21)
)
;

boundaryField
{
    back
    {
        type            empty;
    }
    ingreso
    {
        type            fixedValue;
        value           uniform (0.0008 0 0);
    }
    salida
    {
        type            zeroGradient;
    }
    front
    {
        type            empty;
    }
    defaultFaces
    {
        type            noSlip;
    }
}


// ************************************************************************* //
