/*--------------------------------*- C++ -*----------------------------------*\
  =========                 |
  \\      /  F ield         | OpenFOAM: The Open Source CFD Toolbox
   \\    /   O peration     | Website:  https://openfoam.org
    \\  /    A nd           | Version:  7
     \\/     M anipulation  |
\*---------------------------------------------------------------------------*/
FoamFile
{
    version     2.0;
    format      ascii;
    class       surfaceScalarField;
    location    "98.5";
    object      phi;
}
// * * * * * * * * * * * * * * * * * * * * * * * * * * * * * * * * * * * * * //

dimensions      [0 3 -1 0 0 0 0];

internalField   nonuniform List<scalar> 
1111
(
7.02146e-09
1.29413e-08
-1.60448e-08
-3.91802e-09
6.96722e-09
-1.17908e-08
1.1845e-08
-1.47434e-08
5.75827e-09
8.84214e-09
1.43039e-10
9.11551e-10
-1.05424e-09
-1.43783e-08
1.4521e-08
-1.43405e-08
1.41373e-08
1.11473e-09
-1.62082e-09
1.49146e-08
2.13482e-09
-2.79719e-09
9.44287e-09
-9.49138e-09
2.8457e-09
-6.72205e-09
-1.26126e-08
1.2598e-08
6.73662e-09
-5.0228e-08
-2.60864e-08
7.63144e-08
-8.11327e-09
7.71552e-09
7.36497e-09
3.29474e-09
3.71186e-10
-3.37503e-09
-2.90894e-10
1.58719e-08
-1.62543e-08
-2.32483e-08
2.36307e-08
-9.66576e-09
-7.89806e-09
8.80278e-09
8.76104e-09
-3.55787e-08
1.77216e-08
-3.23529e-08
5.02101e-08
9.49677e-09
-1.9627e-09
-1.42561e-08
-4.734e-10
1.45364e-09
-2.87177e-09
1.89153e-09
-3.94985e-09
1.33221e-08
1.97118e-09
-1.13434e-08
8.81185e-09
-2.67033e-09
-1.50543e-08
8.91274e-09
3.72228e-08
-2.98915e-08
-7.33127e-09
-1.94397e-08
3.29325e-10
1.72335e-08
1.87682e-09
-1.06675e-09
4.23599e-09
-1.78445e-08
1.46753e-08
-6.12255e-08
-3.96175e-09
6.51872e-08
1.37858e-10
-1.13381e-09
-3.28611e-10
1.32456e-09
-1.76878e-09
-1.36385e-08
-7.85498e-11
-2.28741e-10
1.70991e-10
1.363e-10
-1.03865e-08
-8.5695e-09
1.31313e-08
5.82471e-09
6.82749e-10
-2.12856e-09
-8.2604e-09
9.70621e-09
8.67323e-09
7.66007e-10
-9.72913e-09
2.89884e-10
-2.87639e-09
-8.04068e-09
1.11126e-08
-1.95497e-10
1.141e-08
-1.02353e-09
-1.57466e-09
-7.94599e-10
8.00667e-10
-1.50421e-11
8.97422e-12
-7.32142e-11
6.64146e-10
1.97287e-10
-7.88218e-10
-4.16233e-10
-3.97552e-11
4.4797e-10
8.01819e-12
-5.05816e-11
-7.59555e-10
1.14166e-10
6.9597e-10
-1.07581e-10
-7.37599e-10
9.86059e-10
-1.83972e-08
-2.02858e-09
-3.38146e-10
3.81628e-11
-1.16249e-10
1.33812e-08
-1.32444e-08
4.09915e-09
-3.46962e-10
5.3793e-10
3.1648e-10
-5.07448e-10
-1.6832e-11
-1.29293e-09
1.11502e-09
1.94744e-10
-1.92668e-09
1.06289e-08
-1.14994e-08
-2.37623e-10
-1.43723e-10
4.32e-11
-8.73051e-09
1.05342e-08
-9.91694e-09
1.22681e-08
-1.71442e-08
4.55997e-09
3.1617e-10
4.91391e-11
-1.40341e-10
-1.4642e-10
1.49509e-10
7.43736e-10
-9.25772e-11
-5.95257e-08
7.42326e-08
-1.47069e-08
9.97673e-10
-2.14004e-10
-1.10872e-09
3.25047e-10
1.14568e-09
1.03072e-08
-1.37135e-08
2.26066e-09
-1.83581e-09
7.80099e-09
-8.94869e-09
2.98351e-09
-6.74606e-09
5.59897e-09
5.6943e-09
-4.54721e-09
-7.75067e-09
-1.5949e-09
1.66171e-09
7.68386e-09
-1.82889e-10
-9.0914e-08
9.13002e-08
-2.03299e-10
-2.57593e-10
-8.975e-08
9.01603e-08
-1.52755e-10
8.30781e-08
-1.49274e-09
1.10294e-10
-8.16956e-08
-2.81271e-09
-5.20693e-10
6.12162e-10
8.09682e-10
-4.24171e-10
3.90595e-09
-9.97066e-10
3.50726e-09
-6.41614e-09
-9.14923e-10
8.50429e-10
-1.49275e-08
6.57976e-09
9.88058e-09
1.06475e-09
-1.06641e-08
-2.81231e-10
-6.08431e-09
1.35265e-08
9.79136e-10
-8.42134e-09
1.43787e-08
-4.55422e-09
3.77974e-09
-1.36042e-08
1.53927e-08
1.67488e-09
-1.6388e-09
-1.99365e-10
-2.00654e-08
-7.42447e-09
2.76892e-08
1.4461e-08
-8.81281e-09
-1.88244e-09
8.01885e-09
-1.22207e-08
2.87907e-11
2.70988e-11
-1.16461e-09
-3.61544e-08
-2.33714e-08
8.33421e-09
2.93173e-10
3.64069e-09
-6.98954e-09
1.12036e-08
6.32008e-09
-5.63816e-10
2.95435e-10
4.54909e-10
-1.86529e-10
5.71494e-09
-4.80444e-09
3.67559e-09
-4.58609e-09
-4.06925e-10
-5.99659e-10
2.4703e-10
6.09439e-10
-5.35027e-10
1.70687e-11
-7.35486e-10
6.45204e-10
-1.81886e-08
2.4069e-09
1.58348e-09
1.41983e-08
2.00896e-10
-6.55144e-10
-1.09568e-10
-4.18602e-09
-1.51618e-08
1.15915e-09
5.6113e-09
1.20918e-08
-5.23234e-09
-1.24708e-08
1.64013e-08
7.26731e-10
-1.58637e-08
-1.2643e-09
-6.44384e-10
4.23039e-10
5.16781e-10
-3.08639e-10
1.48689e-10
1.5995e-10
-7.45989e-09
-3.52259e-09
4.23642e-09
-1.95891e-10
3.07858e-10
-1.11967e-10
1.09806e-09
-1.56706e-08
-7.79547e-10
9.98455e-09
-1.11317e-08
-9.01173e-10
-2.91569e-10
1.29568e-08
4.44423e-09
-4.18539e-09
-1.32156e-08
7.01413e-11
7.19117e-09
-7.97093e-09
6.37872e-09
-1.6174e-09
-9.0387e-09
8.2433e-09
2.4128e-09
-1.92808e-09
6.86939e-10
-1.39206e-08
-1.04737e-10
-9.11542e-11
3.09356e-10
6.68022e-10
-8.72805e-09
7.64995e-10
1.72747e-08
-1.63839e-09
-1.20421e-08
1.34202e-08
-1.37819e-09
1.22506e-08
1.39284e-08
-1.54969e-08
-1.06822e-08
-4.89841e-10
9.14779e-10
-4.24938e-10
2.51904e-10
-9.6343e-11
-1.55561e-10
1.13173e-10
3.41334e-10
-4.54507e-10
1.30876e-09
-1.05264e-09
-2.56127e-10
-1.0542e-08
9.22287e-10
9.61969e-09
1.92978e-09
-6.21013e-10
8.97517e-09
-1.54118e-08
7.75648e-09
-9.28293e-09
6.16394e-11
3.63836e-09
-4.05266e-10
-2.30096e-09
2.3626e-09
-6.46631e-09
7.80205e-09
-1.33574e-09
-4.87299e-10
4.27624e-09
1.17007e-10
1.72621e-08
-1.44785e-08
-1.63796e-09
-6.1196e-09
5.43191e-09
-3.09375e-10
-1.81983e-10
5.78356e-09
-5.76596e-09
-1.75989e-11
6.85807e-09
4.55116e-09
-3.96643e-11
-1.59459e-08
1.04695e-08
1.77271e-08
5.80146e-09
8.24779e-09
8.18121e-09
-6.84951e-09
1.40719e-09
-1.19492e-08
2.54571e-10
1.42683e-09
-1.30052e-08
2.78442e-09
-4.21823e-10
1.12771e-08
-1.05503e-08
-2.74422e-10
-7.34332e-10
-1.38189e-08
7.72385e-09
7.02613e-10
2.33299e-12
-8.88919e-09
5.00268e-09
-3.00909e-08
-1.25157e-08
-2.82794e-09
1.5248e-09
1.41116e-08
1.10613e-08
-1.08198e-08
-1.43531e-08
1.53855e-08
-3.15103e-09
-1.22345e-08
1.60789e-09
3.99575e-09
-9.75793e-10
-8.85528e-10
-8.26986e-10
1.11793e-09
5.9458e-10
-2.20192e-10
3.3902e-10
3.36081e-10
6.21431e-08
-6.21692e-08
2.60894e-11
6.20629e-08
-6.2367e-08
3.0417e-10
8.37389e-10
6.47316e-08
-6.55587e-08
8.27117e-10
6.41238e-08
6.0783e-10
-2.23912e-10
-6.65043e-08
9.4555e-10
-6.20589e-08
6.19241e-08
1.34785e-10
1.31532e-09
-6.78196e-08
-6.22188e-08
1.59929e-10
1.26618e-08
-6.338e-10
1.25022e-09
-3.69847e-09
3.08205e-09
3.00249e-10
-1.16255e-09
8.89181e-10
-5.37304e-10
1.37064e-09
-1.5983e-09
7.64966e-10
1.3748e-09
-1.46142e-09
1.13715e-10
-4.5107e-11
-3.44618e-09
2.70861e-09
-1.93567e-09
2.67323e-09
-3.97949e-10
-2.71687e-09
2.48101e-09
-3.51608e-09
-5.83557e-09
5.72414e-10
-5.89718e-10
1.16171e-09
1.09811e-09
-6.45605e-09
7.89347e-09
3.11374e-09
1.9738e-08
-4.35245e-09
-6.81066e-10
2.81042e-10
9.72438e-10
-1.0091e-08
-2.60633e-08
5.28189e-09
-4.23763e-09
-3.18497e-09
2.14072e-09
9.5783e-11
2.46068e-11
3.27581e-10
-2.52816e-09
3.31157e-09
8.98766e-09
7.07556e-10
-1.88149e-10
2.07347e-09
-2.28327e-09
1.7998e-09
1.47148e-08
1.33253e-08
-2.69305e-08
3.27114e-08
6.32535e-09
-2.28387e-08
-1.04172e-08
1.85237e-08
-1.80109e-08
1.05485e-08
-4.54037e-11
-2.21765e-10
-1.19425e-09
-1.67273e-09
-2.89236e-09
3.38655e-09
1.51436e-08
-6.23966e-10
-1.38327e-08
-7.57645e-10
-2.27213e-09
3.12914e-10
1.54712e-08
1.77672e-08
1.3701e-08
7.47452e-10
-1.71738e-09
-1.27311e-08
-1.48443e-09
5.97802e-09
1.25901e-08
-4.53898e-10
-1.01803e-09
-3.64905e-09
2.79763e-09
3.56003e-09
2.50143e-09
1.45214e-08
4.28935e-09
-1.43666e-08
1.8064e-08
-1.76122e-09
2.42699e-09
-3.35069e-09
1.91069e-09
-4.94379e-09
1.29359e-08
-1.19419e-08
-1.40491e-08
3.13317e-10
8.79203e-09
-1.78985e-09
1.49442e-09
1.45715e-09
-8.66207e-09
7.0421e-10
-4.55789e-09
-5.99492e-09
1.21823e-08
-1.48494e-08
1.04859e-09
1.67637e-09
-2.2022e-09
1.68233e-08
-1.62975e-08
-1.11465e-09
1.41917e-08
3.09412e-09
-4.46351e-09
-1.40424e-08
7.57868e-09
-1.74182e-08
-8.17136e-09
6.85741e-09
5.87343e-09
1.4626e-08
-1.00584e-08
3.01503e-09
9.45617e-09
9.83391e-09
3.86102e-09
-4.21103e-09
2.1778e-08
-1.92375e-08
5.03813e-09
-1.06204e-08
2.16993e-09
5.68577e-09
1.39617e-08
-3.4516e-10
1.28149e-08
-1.35844e-08
-1.92864e-09
1.71104e-09
-7.07239e-10
9.2484e-10
1.10698e-08
-6.3683e-09
7.39028e-09
-1.1016e-08
1.46036e-09
-4.74466e-09
1.15049e-08
-1.19926e-08
-7.58127e-09
9.23102e-09
9.42006e-09
1.29408e-08
5.83532e-10
-1.38695e-08
1.43509e-09
7.80958e-10
-1.11469e-08
-6.72595e-09
1.02916e-08
-1.3661e-09
2.51248e-09
-8.99329e-09
4.77806e-09
-5.30012e-09
1.16185e-08
-3.47696e-09
-1.18344e-08
3.69285e-09
-4.46944e-09
1.13432e-08
1.81597e-09
1.11354e-09
-5.05056e-09
-1.78405e-08
1.05236e-08
1.23674e-08
7.26507e-10
-1.10534e-08
-1.00393e-08
1.60422e-08
1.26334e-08
2.87487e-09
-9.8225e-09
-1.3338e-08
-3.25179e-10
-1.27601e-08
1.61993e-10
-7.6811e-10
1.17187e-08
1.25505e-08
-8.23822e-09
1.66929e-08
-1.60616e-08
3.65797e-09
-4.92924e-10
1.78824e-09
1.29029e-08
-3.93111e-09
-1.2725e-08
-5.02455e-09
1.84585e-09
4.60553e-09
1.23308e-08
-7.24079e-09
9.74945e-10
-1.66379e-09
5.65759e-10
-8.30609e-10
5.91838e-09
2.64082e-08
-5.85791e-11
-9.52893e-09
9.58751e-09
2.86063e-08
-2.23586e-08
2.21133e-08
1.97661e-08
-1.2721e-08
-2.70265e-09
1.51331e-08
1.65449e-10
-1.21445e-08
-4.50127e-10
-6.01037e-09
-1.84928e-09
2.185e-09
1.48024e-09
-4.56959e-10
-1.11396e-08
1.1573e-08
2.34997e-11
3.04306e-09
-5.08411e-09
-1.11502e-08
1.06883e-08
-9.20848e-10
-1.08633e-08
-2.35601e-10
-1.13494e-08
-2.50075e-09
-1.20819e-08
2.1635e-09
7.89842e-09
5.14813e-09
-4.52747e-10
-1.18219e-08
1.18177e-08
5.59828e-10
-8.87125e-09
5.13675e-09
-1.54638e-09
2.20094e-09
-2.01888e-09
-1.30595e-08
-1.25368e-08
1.20255e-08
-1.01802e-08
-1.58081e-08
1.00423e-08
9.29173e-09
8.20553e-10
2.70833e-09
-1.22373e-08
1.15155e-08
1.66351e-09
3.89649e-09
2.78495e-10
-4.75336e-10
-2.10084e-10
-4.15433e-09
2.51701e-09
-6.34809e-10
1.64716e-10
-1.94105e-10
2.93889e-11
-2.69973e-09
1.3098e-08
2.23516e-09
2.53529e-09
1.41821e-10
-1.34785e-09
-5.46646e-10
-2.29062e-09
-2.51478e-10
1.30502e-08
1.01153e-08
-3.0993e-10
6.77962e-09
-1.24357e-09
-5.22612e-09
-9.83069e-09
-5.13495e-09
1.24838e-10
3.98788e-11
4.87309e-09
1.3346e-09
-1.72611e-08
-3.16327e-10
-7.37229e-10
-2.77907e-09
1.02758e-09
3.11288e-09
6.19455e-08
-8.56673e-11
-6.18599e-08
6.23698e-08
1.88812e-10
-6.25587e-08
-1.41158e-08
-2.76617e-10
1.44636e-08
-7.119e-11
3.13599e-09
-1.77137e-09
2.48306e-09
1.80079e-09
-4.5201e-09
-2.88053e-10
-5.02222e-10
4.07704e-10
-9.2011e-11
4.04244e-10
-2.6947e-10
1.9723e-08
1.04533e-09
-1.58953e-08
-1.27515e-10
-1.9376e-09
1.2559e-08
2.28152e-09
1.80559e-09
5.34544e-09
-2.12577e-09
-7.72331e-08
-2.4178e-08
-4.98598e-09
1.58468e-08
2.46129e-09
-1.69104e-11
-2.90852e-09
-1.04205e-09
2.84161e-10
-2.60141e-10
-9.85405e-09
-3.65354e-10
1.02194e-08
-1.08845e-08
-6.582e-09
1.07406e-08
-9.49712e-09
8.75162e-09
2.42386e-10
1.45175e-09
9.3938e-09
-9.34307e-09
-5.07301e-11
5.75679e-10
8.67694e-11
1.07899e-08
5.47523e-10
-7.32312e-10
-6.7354e-11
-1.42477e-08
-4.60246e-10
-1.38397e-08
1.2726e-08
-1.1898e-08
-6.60355e-08
6.4992e-08
1.04354e-09
2.23155e-10
-1.98547e-10
1.20567e-08
-2.0179e-10
7.6851e-12
-2.07114e-09
2.75767e-09
-3.42004e-09
-1.34702e-08
-1.62417e-09
2.57449e-09
-4.69326e-09
-1.4128e-08
1.56009e-09
5.55164e-09
9.70041e-09
-9.06805e-09
-2.24961e-10
2.31706e-11
-9.30737e-09
-1.3397e-08
1.51029e-10
-6.26933e-08
2.35439e-10
6.24578e-08
6.95257e-10
6.34285e-08
-2.2367e-10
-1.6464e-09
-1.45007e-08
1.07467e-10
-6.34065e-08
6.3299e-08
1.85489e-10
-6.29474e-08
6.27619e-08
3.25776e-10
6.17998e-08
1.50436e-10
-6.19502e-08
6.1631e-08
1.68816e-10
-8.78897e-08
8.8499e-08
-1.38194e-12
9.33939e-08
-9.31005e-08
-2.67357e-10
-8.66289e-08
-4.33744e-10
9.3353e-08
-1.82932e-10
-8.49156e-08
-7.67684e-10
9.34837e-08
1.7342e-10
-5.22257e-10
1.9613e-09
9.23598e-08
-6.93123e-08
6.21411e-08
-6.2324e-08
-6.29509e-08
6.14886e-08
1.42362e-10
-3.1369e-09
2.95501e-09
-1.41847e-08
4.53408e-11
7.94969e-11
1.23353e-09
8.71433e-09
-1.13847e-08
3.83146e-08
-3.45485e-08
-1.67714e-08
1.38077e-08
-3.61097e-11
-2.05539e-10
1.3675e-10
5.92921e-10
-1.19531e-10
3.07043e-10
4.43802e-09
1.04469e-09
-3.57202e-09
-1.52364e-10
1.90528e-10
-1.09163e-10
-2.58495e-09
1.32449e-08
2.43801e-09
-1.44282e-08
-2.63029e-09
-3.29147e-09
5.53111e-09
1.04763e-09
-2.6283e-09
1.43304e-08
-1.1785e-09
-1.75957e-09
1.8557e-09
-8.11716e-09
-1.9074e-08
-1.35006e-08
8.02323e-09
5.79068e-09
-2.05289e-10
-5.67107e-10
2.95739e-09
1.4487e-08
2.28618e-09
-1.85858e-09
-3.73018e-10
4.23291e-10
-2.32256e-10
1.59346e-08
-5.94373e-10
-1.57055e-08
4.41296e-11
-1.76195e-10
3.30933e-10
-2.60059e-10
3.4258e-09
-1.62831e-08
4.35717e-10
-1.49741e-09
-2.08291e-09
-2.29484e-09
1.57088e-08
-9.05946e-08
-1.33867e-10
9.16798e-08
-1.90845e-10
-8.91649e-08
-4.77637e-10
9.31032e-08
-2.75221e-10
-9.29137e-08
-5.40675e-10
-1.57775e-09
1.68338e-08
9.19813e-08
-1.98829e-10
2.93135e-11
-2.20928e-10
9.77322e-09
2.47782e-09
-7.31314e-09
-1.22308e-08
-5.67731e-09
8.40433e-09
1.49837e-09
-6.78897e-09
-5.9916e-09
9.04244e-09
-6.00234e-11
1.01368e-08
1.95011e-08
-1.79883e-08
3.08587e-09
-1.27468e-08
3.10764e-09
-6.99668e-08
3.93131e-09
-2.06013e-08
-1.30641e-08
-4.682e-10
-5.93336e-09
-1.52932e-08
9.08203e-09
-1.51205e-08
4.07292e-10
3.4467e-10
-1.92058e-09
-1.66841e-08
1.70962e-08
7.1701e-09
-7.6908e-09
-4.56933e-09
1.53087e-08
-1.67743e-09
6.99121e-10
-8.69924e-10
9.47744e-11
1.19667e-08
3.32078e-09
7.09118e-08
-1.8249e-08
7.0758e-10
-1.50428e-08
-2.24445e-10
-2.60541e-10
-1.104e-10
6.09512e-08
-6.12264e-08
-6.33772e-08
-6.31463e-08
-6.42453e-11
-2.6221e-10
-9.25872e-08
-6.04534e-08
6.24147e-08
6.51022e-08
-6.028e-08
6.458e-08
-6.04629e-08
6.38123e-08
-6.07303e-08
6.33786e-08
9.23101e-08
2.65018e-10
-6.34754e-09
7.51213e-08
-6.5453e-08
3.2188e-11
-3.2188e-11
1.4409e-10
-3.14833e-10
1.54795e-08
-1.5862e-11
1.5862e-11
3.12151e-10
1.5214e-09
1.39074e-08
1.34241e-08
-2.71855e-09
3.71895e-09
6.63509e-09
1.79131e-09
3.55042e-10
-2.40466e-10
-2.97294e-09
1.4585e-08
1.48448e-08
-4.28899e-09
1.18197e-08
1.71949e-10
1.3841e-10
2.71393e-09
-8.00081e-10
-1.51004e-09
-5.84216e-09
-2.04472e-10
-3.84662e-10
1.53106e-08
2.38818e-10
5.42799e-11
1.44063e-08
-2.62386e-08
1.78118e-08
2.66946e-09
1.23841e-09
2.5007e-09
-3.72249e-09
1.93491e-08
-1.81273e-08
-7.25491e-11
8.95373e-11
-1.441e-09
-7.92111e-08
-7.07533e-08
1.27881e-09
-4.33728e-10
6.26257e-10
2.30058e-08
1.86086e-08
-6.37823e-09
7.49301e-11
-4.25342e-09
-2.52274e-09
2.99498e-08
1.58506e-10
1.48183e-08
7.35797e-08
4.41608e-11
5.09319e-10
-1.46708e-10
-2.04987e-10
-3.614e-09
2.43084e-08
-1.48691e-08
9.3462e-10
-1.41905e-08
-4.73088e-11
2.03978e-08
-2.87265e-08
9.47504e-10
1.89983e-09
-2.41178e-10
)
;

boundaryField
{
    back
    {
        type            empty;
        value           nonuniform 0();
    }
    ingreso
    {
        type            calculated;
        value           nonuniform List<scalar> 
14
(
-1.54286e-08
-1.54288e-08
-1.54288e-08
-1.54288e-08
-1.54286e-08
-1.54283e-08
-1.54288e-08
-1.54288e-08
-1.54286e-08
-1.54286e-08
-1.54288e-08
-1.5428e-08
-1.5428e-08
-1.54286e-08
)
;
    }
    salida
    {
        type            calculated;
        value           nonuniform List<scalar> 2(1.01411e-07 1.14589e-07);
    }
    front
    {
        type            empty;
        value           nonuniform 0();
    }
    defaultFaces
    {
        type            calculated;
        value           uniform 0;
    }
}


// ************************************************************************* //
