/*--------------------------------*- C++ -*----------------------------------*\
  =========                 |
  \\      /  F ield         | OpenFOAM: The Open Source CFD Toolbox
   \\    /   O peration     | Website:  https://openfoam.org
    \\  /    A nd           | Version:  7
     \\/     M anipulation  |
\*---------------------------------------------------------------------------*/
FoamFile
{
    version     2.0;
    format      ascii;
    class       volVectorField;
    location    "63";
    object      U;
}
// * * * * * * * * * * * * * * * * * * * * * * * * * * * * * * * * * * * * * //

dimensions      [0 1 -1 0 0 0 0];

internalField   nonuniform List<vector> 
591
(
(0.000826709 -2.76432e-05 1.21823e-18)
(0.000814518 -2.48827e-05 -6.63991e-19)
(0.000856962 -1.38253e-05 5.68941e-20)
(0.000856216 -7.76831e-06 -1.49152e-19)
(0.000839532 5.51422e-06 2.25593e-19)
(0.000801603 -4.08726e-05 -1.39654e-19)
(0.000556841 -0.000306799 8.06561e-19)
(0.000802589 3.87301e-06 2.07674e-18)
(0.00573488 0.00249856 9.87833e-19)
(0.000796915 -1.40703e-05 2.4552e-18)
(5.01289e-05 0.000170927 1.21851e-18)
(0.000927007 0.00137481 9.4095e-21)
(0.000798454 5.57063e-06 1.32462e-18)
(0.00160158 0.00238702 -7.87774e-19)
(0.000803169 3.15704e-06 -4.42581e-19)
(7.14292e-05 -0.000209905 2.43457e-22)
(0.000135845 0.000677297 7.05098e-19)
(0.000818907 6.08075e-05 -4.89414e-19)
(0.00193343 0.000391322 4.73607e-19)
(0.00135712 0.00025526 -2.47161e-19)
(0.000833383 -3.47681e-06 3.72298e-19)
(0.00340016 0.00655926 -8.15216e-20)
(2.83207e-05 7.09611e-05 2.70997e-19)
(0.000834533 -1.26845e-05 -4.50845e-19)
(1.21292e-05 -1.68531e-05 3.59003e-19)
(0.000769802 3.16365e-05 0)
(9.27715e-05 0.000475407 1.59991e-19)
(0.000539647 1.3555e-05 -1.78879e-19)
(0.000752645 4.84688e-05 1.14977e-18)
(0.000812921 4.47105e-05 5.92092e-19)
(5.88291e-05 -3.33964e-06 -3.97858e-24)
(3.43737e-05 -4.74479e-05 3.5225e-19)
(3.78657e-05 -3.20043e-06 -4.64321e-20)
(4.66212e-05 -1.17426e-05 0)
(5.57791e-05 -1.32918e-05 1.1317e-18)
(0.00117434 0.000130599 1.79951e-19)
(3.23584e-05 -5.59803e-06 4.47237e-20)
(0.00082688 6.86449e-06 3.04285e-23)
(2.80576e-05 4.45995e-05 2.66083e-19)
(1.9064e-05 -0.000107482 -8.54943e-19)
(0.000629148 -0.000203989 9.60467e-19)
(2.61116e-05 -7.07157e-06 4.54918e-20)
(0.000799419 -9.89148e-08 -1.58061e-18)
(0.000829728 3.9625e-05 -6.90552e-19)
(1.7949e-05 -8.34322e-06 0)
(5.60493e-05 7.4595e-06 8.52042e-20)
(0.00134446 0.00450358 8.93092e-19)
(7.73247e-05 1.69988e-05 8.63794e-20)
(0.000799729 1.71638e-05 0)
(0.000380069 -0.000199659 6.77767e-19)
(0.000379961 0.000274652 5.12004e-21)
(0.000392458 5.23882e-05 -1.00399e-18)
(0.0063484 0.010942 -7.68477e-19)
(0.00622525 0.0107973 1.52787e-20)
(0.00561467 0.0103804 1.45583e-18)
(0.000809892 2.5227e-05 0)
(6.80397e-05 3.19287e-05 0)
(0.000317692 1.73301e-05 1.35684e-23)
(6.41768e-05 1.11943e-05 -3.46527e-19)
(0.000815982 -8.15666e-06 0)
(0.000632645 2.87006e-05 3.17633e-19)
(0.000831301 6.15719e-06 2.20929e-18)
(0.000796773 2.63819e-05 -5.43068e-19)
(0.000799029 1.59391e-05 -3.15816e-19)
(0.00171278 0.000479258 5.42486e-19)
(0.000796165 1.12451e-05 -1.15505e-18)
(0.0008262 1.56516e-05 -5.24283e-19)
(8.2499e-05 -1.62742e-06 -1.73446e-19)
(0.00068877 0.00226415 0)
(0.00083369 3.47279e-05 0)
(0.00077532 1.57363e-05 -1.39156e-18)
(3.88565e-05 1.65379e-05 0)
(0.00028761 0.00027165 3.26901e-19)
(4.17395e-05 -1.76876e-05 0)
(4.28494e-05 -6.01404e-06 1.59504e-19)
(1.77275e-05 -4.6276e-05 -3.36741e-20)
(0.000787514 7.53956e-05 2.46995e-19)
(4.52114e-05 1.11558e-05 0)
(0.000798062 5.67413e-05 4.47447e-19)
(0.00076909 0.000293897 2.10768e-19)
(0.000964913 6.16515e-05 -3.98015e-20)
(4.37814e-05 2.37303e-05 -4.51952e-20)
(5.96378e-06 -2.52932e-05 0)
(0.000431505 0.000217799 1.70216e-19)
(2.85205e-06 2.39819e-05 0)
(0.000786887 3.55744e-05 -6.07477e-19)
(0.000600979 -0.000120758 0)
(6.62438e-05 -1.07662e-06 -1.74514e-19)
(3.70172e-06 -3.46266e-05 0)
(0.000825563 0.000242809 -3.41334e-19)
(4.03565e-06 -1.51421e-05 0)
(0.000421652 0.000323765 -1.29422e-23)
(0.000526924 0.000112728 0)
(0.000803908 4.60549e-05 -3.4109e-24)
(2.80335e-06 1.53404e-05 -4.21797e-20)
(0.000451137 -1.02037e-05 1.76391e-18)
(0.00102383 7.22922e-05 4.16118e-20)
(0.000845756 4.40397e-05 6.41139e-22)
(0.000736446 0.000657474 2.69548e-19)
(6.59897e-06 5.06725e-05 0)
(1.6089e-06 -5.39309e-05 -3.12005e-19)
(-1.61488e-05 -9.79624e-05 -1.10049e-18)
(3.86189e-06 8.04648e-05 -5.96396e-19)
(0.000630461 -1.87412e-05 0)
(7.89144e-06 0.00010554 0)
(0.000807148 2.25168e-05 2.19091e-18)
(0.000784419 2.23452e-05 1.53143e-18)
(0.000421051 -7.39854e-05 0)
(4.35134e-05 0.000220294 -8.95561e-19)
(-5.41212e-07 0.000173011 4.96676e-19)
(6.35899e-05 0.000416451 6.25187e-19)
(0.000304065 8.60772e-05 -9.37283e-19)
(0.000803176 1.97431e-05 1.37366e-19)
(0.000261989 -3.65395e-05 5.31329e-19)
(4.1291e-06 3.40349e-05 0)
(2.30988e-05 0.000290287 -1.09403e-18)
(0.00031909 0.000324893 -1.61731e-19)
(2.42841e-06 -4.36524e-05 1.46518e-19)
(0.000670029 0.000813391 0)
(0.000366843 0.000388951 5.74512e-20)
(0.000813694 1.27162e-05 1.07045e-18)
(0.000798967 1.29804e-06 -2.71177e-18)
(6.45185e-06 -5.49458e-05 0)
(0.000680016 -3.11166e-05 -1.12341e-19)
(0.000320339 -0.000105873 1.24349e-18)
(0.00264826 0.000803581 -3.36169e-19)
(4.9455e-06 0.000135973 -6.13215e-19)
(3.56329e-06 0.000165777 1.61946e-18)
(0.000722983 2.15341e-05 -3.89979e-20)
(6.47783e-05 -1.28703e-05 -7.50317e-19)
(0.000804401 2.66355e-05 -3.88222e-19)
(0.000771346 2.61224e-05 -4.1047e-20)
(3.88504e-05 0.00033643 -5.96926e-19)
(0.000483196 6.89881e-05 -4.94026e-19)
(4.97691e-05 -3.15168e-06 1.56185e-19)
(0.000830619 2.57129e-05 -1.0938e-18)
(0.00156921 0.000237854 -1.13704e-18)
(3.96615e-06 6.46235e-05 4.96467e-19)
(0.000808573 2.51096e-05 -4.95596e-19)
(0.000907158 0.000541631 -7.8525e-20)
(0.000143383 0.000795201 0)
(0.000578136 6.52214e-05 0)
(0.000274886 5.55917e-05 -1.60999e-18)
(6.3846e-05 5.93365e-05 -1.37436e-18)
(3.13054e-05 2.09827e-05 0)
(0.00424711 0.00740011 -1.01962e-20)
(0.00422553 0.00737191 3.1642e-20)
(0.00442773 0.00757468 -4.96211e-21)
(0.00420673 0.00773562 0)
(0.00419909 0.0076014 5.77181e-19)
(0.00424432 0.00740136 -9.19828e-20)
(0.00421041 0.00804346 4.84403e-19)
(0.00428934 0.00742186 0)
(0.00420862 0.00853678 6.16701e-19)
(0.00432573 0.00745026 2.23885e-19)
(0.000821012 3.91568e-06 -1.37369e-18)
(0.000766273 5.23038e-05 0)
(0.000214357 5.50324e-05 1.27716e-19)
(5.10463e-05 1.62783e-05 8.72018e-20)
(7.84823e-05 4.5592e-05 6.80152e-19)
(0.000106405 4.21661e-05 -3.41735e-19)
(0.000101004 6.29051e-06 0)
(4.89851e-05 5.16212e-06 8.18538e-20)
(0.000205803 0.000134422 0)
(0.000166139 4.41096e-05 -5.2438e-20)
(0.000342235 0.000223735 -5.09344e-21)
(5.63521e-05 4.35746e-05 -4.3774e-19)
(9.1264e-05 2.8126e-05 -8.52639e-20)
(9.08056e-05 6.2688e-05 1.3122e-21)
(0.000254267 0.000367322 -6.66286e-19)
(0.000106575 0.00100682 0)
(4.2421e-05 5.32402e-05 3.43129e-19)
(0.000202043 0.00175354 0)
(0.00020743 0.000254537 7.04784e-19)
(3.87706e-05 -3.95202e-06 1.11517e-19)
(0.000480875 0.000164943 -1.72333e-19)
(0.00075799 2.46774e-05 -1.92452e-18)
(4.35135e-05 -1.14851e-06 4.43919e-24)
(0.000149122 2.59215e-05 2.24632e-19)
(0.000243438 9.42988e-05 -8.99499e-20)
(0.000880999 0.000706814 3.34999e-19)
(0.000718659 0.0016335 -9.23736e-21)
(0.000391724 0.0014254 -9.39466e-21)
(0.0010229 0.000549329 0)
(0.000103588 -1.48769e-05 1.11893e-18)
(0.000116687 1.68971e-05 -4.43235e-20)
(0.000451049 -0.000287503 -1.13618e-18)
(0.000811734 3.73329e-05 0)
(0.000182216 4.6211e-06 3.63368e-19)
(0.000300405 0.00131579 0)
(0.00107343 0.000771986 -7.30329e-20)
(0.000825952 3.44494e-05 -1.86546e-19)
(7.85561e-05 -2.08354e-05 -3.00042e-19)
(0.000825174 0.000320051 -2.08089e-20)
(5.84876e-05 -2.1472e-05 -5.99624e-19)
(0.000226167 0.000176705 8.64031e-20)
(0.000229148 0.000309747 -3.45072e-19)
(0.000882983 0.000246618 0)
(0.000812655 5.01157e-05 0)
(0.000262513 0.000138488 1.76879e-19)
(0.000234126 4.05677e-06 2.69852e-24)
(0.000184397 0.000207052 0)
(0.000292042 0.000654128 -5.55794e-21)
(0.000345203 -1.62549e-06 0)
(0.000367785 0.000600551 0)
(0.000109317 8.33272e-05 -1.34696e-21)
(0.000809791 2.59791e-05 -9.39787e-19)
(0.000808554 1.93462e-05 7.96516e-19)
(0.000129253 5.867e-05 -1.49885e-19)
(0.000955526 0.000151135 8.50743e-20)
(0.000835257 4.38099e-05 3.33006e-19)
(0.000815 2.55561e-05 -2.94979e-19)
(0.00101575 0.000412124 0)
(0.000436677 0.000120929 6.24559e-19)
(0.000895908 0.000319698 2.0918e-20)
(0.000573989 0.000157389 0)
(0.000271615 0.000446952 4.09709e-19)
(0.000261208 0.000218284 -8.44326e-20)
(0.00109441 0.000377057 -7.82274e-19)
(0.000620269 0.000105855 -1.79329e-19)
(0.000806723 7.30312e-05 -7.45095e-21)
(0.000838574 2.95245e-05 9.39577e-20)
(8.10579e-05 -8.77564e-05 -1.98177e-18)
(0.000736776 0.000382047 2.19275e-19)
(0.000664871 6.26411e-05 2.3067e-20)
(0.000704545 0.000279128 1.59757e-23)
(0.000727402 0.000459074 -4.09738e-19)
(0.000843873 3.17744e-05 9.06553e-20)
(7.2364e-05 8.08811e-05 0)
(0.000653987 0.000418707 -4.6596e-20)
(0.000183827 9.69756e-05 0)
(0.000374147 0.000501853 -2.64881e-19)
(0.000309612 0.000169209 0)
(0.000672613 0.000203855 3.55299e-19)
(0.000647061 0.000260477 -4.37338e-20)
(8.16674e-05 0.000104765 6.19277e-19)
(0.000874816 9.20843e-05 -1.61975e-18)
(5.84377e-05 2.25297e-05 2.57242e-19)
(0.000883491 6.59826e-05 -1.68454e-18)
(0.000837809 8.73723e-05 1.6306e-19)
(0.000808331 3.14258e-05 1.89457e-18)
(0.00081271 3.19291e-05 -1.32844e-19)
(0.000733558 7.29725e-05 0)
(0.000806142 2.71155e-05 8.95805e-19)
(0.000955411 0.000229644 -4.27191e-19)
(0.000769265 9.16315e-05 -4.83799e-19)
(0.000777026 0.000230209 -8.81406e-20)
(0.000216748 -0.000157852 -2.07991e-18)
(0.000742748 8.11701e-05 8.8765e-19)
(0.000639548 0.000596487 0)
(9.53547e-05 -0.000114594 0)
(0.00121642 0.000471382 4.97291e-19)
(0.000643796 -6.24892e-05 -3.25197e-18)
(0.00133921 0.000421103 5.76397e-19)
(0.00123655 0.000718203 -6.38627e-20)
(0.000809096 3.06634e-05 -2.10899e-19)
(0.000832852 6.75099e-05 -1.42481e-18)
(0.000814264 2.41972e-05 1.57232e-18)
(0.000816351 2.88276e-05 9.78443e-20)
(0.000668392 0.000351345 -4.40485e-20)
(0.000102117 0.000124898 5.34228e-24)
(0.000746666 -4.30071e-05 2.65142e-19)
(0.00022022 -0.000255116 -7.33019e-19)
(0.000619817 0.000187133 0)
(0.000704716 4.23879e-05 9.90613e-20)
(0.000687835 1.01955e-05 -3.80891e-19)
(0.000387447 0.000172188 3.93434e-20)
(0.000803947 0.00050431 -1.65504e-19)
(0.000149524 7.70631e-05 3.01297e-25)
(0.000809803 0.000409783 0)
(0.000976683 0.000319402 4.15856e-20)
(0.000752049 -7.84341e-05 -6.16399e-19)
(0.000346544 0.000107283 4.97891e-19)
(0.000903015 0.000424431 0)
(4.99347e-05 3.1879e-05 1.33737e-19)
(0.000481021 0.00026875 2.13988e-19)
(0.000497665 -0.000143897 -7.09648e-19)
(0.000139442 -0.00015694 -1.05777e-18)
(0.00082254 3.00933e-05 -4.86961e-19)
(0.000780105 -9.29397e-05 -1.94304e-19)
(0.000550464 0.000728289 -1.17457e-18)
(0.000844185 4.64707e-05 -6.74242e-20)
(0.000645808 -2.49545e-05 1.27051e-18)
(0.000697975 9.9456e-05 2.27828e-20)
(0.000528365 0.000210984 -1.65714e-19)
(3.26695e-05 -2.22484e-05 -8.76005e-20)
(0.00017129 -4.11955e-05 2.40655e-18)
(1.96868e-05 7.71337e-07 -1.94872e-19)
(0.000822743 0.0001104 3.63819e-19)
(0.000658323 0.000136859 0)
(0.000189001 -8.11048e-05 -1.04831e-18)
(0.000122808 -1.61553e-05 3.1297e-19)
(0.000111759 -3.52048e-05 1.1423e-23)
(0.000794899 0.000107372 -3.19325e-19)
(0.000154234 -1.09683e-05 0)
(0.000582096 0.000242469 0)
(0.000111211 0.000331311 -3.62912e-19)
(0.000857263 0.000100184 2.09489e-18)
(1.60512e-05 1.19972e-06 0)
(0.000875396 5.23973e-05 0)
(4.50638e-05 -2.61506e-05 0)
(0.000815268 4.38621e-05 -4.46531e-21)
(0.000791449 -4.84505e-05 0)
(0.00425988 0.00740631 8.06916e-20)
(0.00436134 0.00748592 1.43299e-19)
(0.000843872 -3.5429e-06 0)
(0.000782343 -5.02888e-05 8.10275e-19)
(0.000152895 0.000126475 1.49235e-19)
(0.000850106 6.96303e-05 8.07753e-19)
(0.000130529 0.000103199 2.34438e-20)
(0.00077604 -3.01901e-05 6.2477e-19)
(3.56412e-05 1.00236e-05 0)
(2.95868e-05 -1.40834e-05 -4.48566e-20)
(0.000892808 4.96236e-05 -4.86666e-19)
(3.50412e-05 -3.27553e-05 -6.6993e-19)
(0.000752973 0.0001205 -4.23325e-20)
(0.000168212 0.000164234 -1.88132e-19)
(0.000814009 2.58236e-05 0)
(0.0046826 0.00815362 9.00696e-22)
(0.000176611 0.000786693 3.33579e-19)
(0.000120277 -5.66404e-05 -9.147e-19)
(6.30679e-05 -3.51678e-05 -1.16897e-18)
(0.000659118 1.45639e-05 1.89891e-20)
(0.000579609 0.00040946 0)
(0.000416219 0.000441624 -2.56374e-19)
(8.80375e-05 -5.89148e-05 1.18389e-18)
(0.000616905 8.32209e-07 7.704e-20)
(4.30114e-05 2.03399e-06 4.07173e-19)
(0.000692594 -5.45519e-05 1.17188e-18)
(0.000809762 3.19783e-05 -5.96065e-19)
(6.87704e-05 -5.53159e-05 1.70956e-18)
(0.000842387 -1.95461e-05 -5.46523e-24)
(0.000635616 7.12914e-06 -3.7658e-20)
(0.000864473 6.78837e-05 0)
(0.000835547 3.68869e-05 0)
(0.00591689 0.00723822 2.59554e-19)
(2.05756e-05 -1.91358e-06 -1.196e-19)
(0.000133583 -9.78361e-05 7.73103e-19)
(0.000720742 0.00011949 -6.96582e-19)
(2.37854e-05 -1.53747e-07 2.01539e-19)
(0.000612324 -3.3879e-05 -7.23969e-19)
(0.000739198 3.7012e-05 1.55838e-18)
(0.000700891 0.00015926 -3.55506e-19)
(0.000807621 -1.3028e-05 3.60461e-19)
(7.93766e-05 -3.31574e-05 1.11623e-18)
(0.000798819 7.46185e-06 -3.22761e-19)
(0.000863976 4.30096e-05 0)
(0.000538271 0.000303336 4.21092e-20)
(0.000853019 5.02617e-05 -9.45994e-19)
(2.10563e-05 2.115e-06 9.11359e-19)
(0.000849601 4.67665e-05 9.65676e-19)
(0.000854177 3.83238e-06 -9.60309e-19)
(0.000743125 -1.40633e-06 -5.69302e-19)
(0.000513594 -6.83459e-05 -5.25754e-19)
(0.00432861 0.0074524 2.4695e-19)
(0.00422354 0.00752961 -2.54215e-19)
(0.00422151 0.00758788 2.6667e-19)
(0.00425582 0.00741057 1.97939e-19)
(0.00084524 -2.32531e-05 1.43959e-19)
(0.00447487 0.00751131 0)
(0.00440268 0.00751638 -3.86756e-19)
(3.21956e-05 -1.44587e-07 -9.9823e-19)
(0.00417052 0.00746937 -6.33557e-20)
(0.00414585 0.00743234 -2.21482e-19)
(0.00603007 0.0106069 0)
(0.00654047 0.0111876 3.7131e-20)
(0.00601003 0.0105766 0)
(0.00655616 0.0112112 1.30855e-19)
(0.00599742 0.0106007 2.69673e-19)
(0.0065928 0.011228 1.2457e-20)
(0.00593604 0.0106135 -7.76706e-19)
(0.00662303 0.0111469 8.14698e-21)
(0.00390367 0.00920116 -1.90877e-19)
(0.00418687 0.00748856 3.89855e-21)
(0.00423815 0.00755306 7.93451e-20)
(0.00415029 0.00743459 4.11976e-20)
(0.000872399 0.000189923 4.46834e-20)
(1.14429e-05 1.63697e-06 0)
(0.000693916 -0.000127751 0)
(0.000670933 4.78091e-05 0)
(0.00244417 0.00110865 4.2481e-21)
(0.000752396 -3.15394e-05 1.72621e-19)
(4.14995e-05 6.09361e-06 4.54144e-20)
(1.19107e-05 -2.86377e-05 1.65358e-18)
(0.000847509 1.65026e-05 0)
(2.862e-05 1.31344e-05 -1.91765e-19)
(0.000140828 0.000224942 0)
(2.01363e-05 -1.08675e-06 0)
(1.64603e-05 -1.48147e-06 0)
(0.000817887 0.000135785 1.137e-20)
(0.000809784 -1.58002e-05 1.79293e-19)
(3.57378e-05 0.000279833 -1.88037e-23)
(0.000158405 0.000274258 -1.84225e-18)
(0.000599859 0.000330775 -8.57156e-20)
(0.000895621 0.000112011 6.00021e-19)
(0.000672635 -0.000244417 6.72991e-19)
(0.00036306 0.00110863 0)
(0.000466889 0.0005743 2.7157e-18)
(9.12401e-05 0.000147847 -1.80336e-18)
(2.48021e-05 1.54492e-07 0)
(0.000819938 -5.41294e-05 3.6317e-20)
(1.71456e-05 3.75255e-05 1.64482e-18)
(0.000900051 3.06257e-05 2.71269e-19)
(-6.38832e-06 -2.17095e-05 3.80243e-18)
(0.000930006 3.94534e-05 -2.69111e-19)
(0.00136113 0.000152076 7.47429e-19)
(3.70843e-05 -1.10647e-05 8.25878e-20)
(3.83741e-05 4.37884e-06 -8.5922e-19)
(5.04698e-05 0.000144999 0)
(0.000905469 7.77837e-05 5.98591e-19)
(0.000492093 0.000368439 2.37186e-19)
(0.000683218 1.7966e-05 -3.89215e-20)
(0.000773808 -6.29798e-06 2.57127e-19)
(0.000735908 -0.00019233 0)
(0.00632157 0.010897 -1.68041e-19)
(0.00637928 0.0109745 4.05789e-19)
(0.00616078 0.0107319 -6.1838e-19)
(0.00650151 0.011133 -8.09767e-20)
(3.55391e-05 0.000120625 8.00692e-19)
(0.000914671 5.92199e-05 1.47078e-22)
(0.00641179 0.0110069 -3.86421e-19)
(0.00628257 0.0108467 5.48402e-19)
(0.00608092 0.0106737 -4.16787e-19)
(0.00652199 0.0111654 -6.81367e-20)
(8.12763e-05 0.000513799 -2.01855e-20)
(9.70494e-05 -0.000203859 -7.94047e-19)
(0.000687601 -2.01953e-05 -7.62407e-19)
(0.000721335 0.000220726 0)
(0.000799609 8.41374e-07 0)
(0.000185127 0.000391863 3.36357e-19)
(0.000596283 0.000519655 -5.41902e-19)
(1.15431e-05 -1.91875e-06 1.78434e-19)
(0.000202556 0.000466561 -7.38524e-19)
(0.00100422 0.000969342 -1.12704e-19)
(0.000739366 0.000166534 0)
(0.00078504 0.000181758 1.3105e-19)
(0.00635471 0.00587662 1.13143e-18)
(0.000740551 0.00112672 8.26676e-20)
(3.99585e-05 3.94204e-05 -7.44849e-20)
(0.000812411 1.8316e-05 0)
(0.000875471 2.63208e-05 -3.56994e-20)
(3.65737e-05 3.76403e-06 -1.96741e-19)
(3.15778e-05 5.19682e-06 1.9303e-19)
(0.000831441 2.124e-05 5.37356e-19)
(0.000968351 0.000107435 6.58652e-19)
(0.000584799 3.71863e-05 0)
(0.000221719 -0.00030663 -3.98086e-19)
(0.000912064 0.000149554 3.89694e-19)
(1.74368e-05 -6.61236e-05 2.03162e-19)
(0.00144522 0.000439175 -2.58079e-18)
(0.000615205 -5.70359e-06 0)
(0.000788006 0.000144679 3.75558e-19)
(9.36527e-05 0.000398443 0)
(0.00118673 0.008164 4.62203e-19)
(0.00048541 0.000501173 -1.22478e-18)
(0.000542893 0.00100109 -1.83787e-19)
(0.000877593 1.96638e-05 -1.4608e-19)
(1.42043e-05 2.65579e-05 0)
(0.000938944 7.67454e-05 6.1186e-19)
(0.0041064 0.00739529 8.14181e-20)
(0.00417143 0.00747392 4.7298e-20)
(0.00449847 0.00751399 4.54031e-19)
(0.00444398 0.00754048 -3.28989e-19)
(0.00647544 0.01111 8.10545e-20)
(0.00391502 0.00714605 -9.67027e-22)
(0.00550675 0.00779522 -5.64736e-19)
(0.00409806 0.00737165 5.21798e-21)
(0.0051872 0.00785532 5.11653e-19)
(0.00407986 0.00734006 -4.87053e-20)
(0.00495222 0.00771471 0)
(0.00408515 0.00736437 -8.5639e-20)
(0.00474093 0.00758624 4.92488e-19)
(0.00409835 0.00737597 8.7502e-20)
(0.00457354 0.00752583 0)
(0.00428341 0.00742044 1.3974e-19)
(0.00423969 0.00759943 5.80054e-19)
(0.00446636 0.0075258 -5.54765e-19)
(0.00438697 0.00750402 3.71362e-19)
(0.00422816 0.00752547 2.88672e-19)
(0.00643091 0.0110435 -4.97524e-21)
(0.0041178 0.00740143 3.11568e-20)
(0.00645895 0.0110733 0)
(2.55237e-05 6.5042e-06 -1.89902e-19)
(0.00199922 0.00654309 2.28349e-19)
(0.000840711 -4.0885e-05 1.09633e-19)
(0.000857479 1.15654e-05 0)
(1.99894e-06 1.79335e-06 -3.992e-19)
(7.75557e-06 -0.000151353 6.91978e-19)
(2.46522e-05 5.86718e-05 2.08943e-18)
(0.000823245 0.000179134 -9.00957e-20)
(0.000798904 1.00538e-05 7.06571e-19)
(1.97797e-06 -1.76421e-06 3.10059e-19)
(2.07855e-05 -3.62704e-05 -1.8461e-18)
(0.000760739 2.78256e-05 1.63193e-19)
(0.000864822 0.000124707 -3.08065e-20)
(0.000799744 -9.50973e-06 1.48175e-19)
(0.000407638 0.000678166 0)
(6.01029e-05 -0.000149852 1.15153e-18)
(0.000859208 1.07937e-05 1.52549e-19)
(2.07703e-05 2.49789e-05 0)
(0.000112682 0.000563133 -6.31339e-19)
(0.000605653 0.000597597 1.31818e-18)
(0.000327082 0.000746159 0)
(0.00080014 -1.75682e-05 0)
(0.000799717 3.4709e-06 1.17177e-18)
(1.87897e-05 5.07468e-05 -3.5157e-18)
(1.7786e-05 7.94015e-06 3.73705e-19)
(0.000115844 0.000148033 0)
(4.91639e-05 -4.19476e-05 0)
(6.34033e-05 0.00011485 2.01042e-19)
(0.000931501 0.00018488 3.50516e-19)
(0.000799766 1.61851e-05 -1.39463e-18)
(2.37192e-05 3.4632e-05 0)
(0.000480417 1.48495e-05 -6.03807e-20)
(0.000801227 3.98998e-05 -1.56381e-19)
(0.000837314 3.21767e-05 1.0626e-18)
(0.000258301 0.000542981 6.32347e-19)
(0.00086874 0.000155576 0)
(2.14006e-05 -2.54776e-05 5.388e-19)
(3.0299e-06 -7.43467e-06 -3.20039e-19)
(0.000996047 2.98602e-05 0)
(0.00103241 0.00225928 0)
(0.000955511 -9.84434e-06 0)
(0.000998168 0.000205329 4.27284e-19)
(0.000815912 -3.1388e-05 -2.83716e-19)
(0.000924312 0.000110547 -6.84942e-19)
(0.000799774 3.31205e-06 0)
(4.26233e-05 7.10853e-05 -1.71603e-19)
(0.000174034 0.000328454 1.08134e-18)
(0.000797684 1.87543e-05 -1.34102e-23)
(0.00108408 0.000207687 -6.69158e-19)
(0.00109039 0.000123587 0)
(2.82035e-06 7.44566e-06 2.51086e-19)
(2.01946e-05 -1.65997e-05 -1.94357e-19)
(0.000589438 3.71032e-05 6.95179e-21)
(1.76312e-05 -8.7255e-05 0)
(0.00105372 0.00025264 9.50244e-19)
(0.0050289 0.00974971 -2.83043e-19)
(0.00312091 0.00962029 1.27239e-18)
(5.13161e-05 -0.00011003 -1.91373e-19)
(6.19316e-05 -7.71299e-05 1.85996e-18)
(0.0011924 0.000240882 1.67299e-19)
(0.00132875 0.00108087 2.34132e-19)
(0.000813136 1.48464e-07 -7.32178e-19)
(0.000201553 0.000952446 -2.38418e-19)
(0.000809572 0.000924946 -2.18625e-19)
(0.000799675 -3.32946e-06 0)
(8.68677e-05 0.000634142 0)
(9.6081e-05 0.00028408 -4.12225e-23)
(0.000721253 -3.91797e-05 -1.68223e-23)
(0.000820427 6.07413e-05 1.50686e-19)
(0.00263011 0.00206448 -1.23156e-18)
(0.00175909 0.00924071 -1.1719e-19)
(0.000833524 4.6576e-05 4.92311e-19)
(0.00632828 0.00404426 -1.75926e-19)
(0.006721 0.0115578 -1.36448e-20)
(0.00473432 0.00784392 4.92869e-21)
(0.000801108 1.42487e-05 -2.18927e-18)
(0.000833898 1.3091e-05 3.4813e-24)
(1.02982e-05 -8.54993e-06 -3.48098e-19)
(4.69484e-05 9.23159e-05 -3.49356e-19)
(6.89928e-05 0.000273903 8.75487e-19)
(1.20312e-05 1.71857e-05 4.90519e-19)
(8.97215e-05 0.000233263 3.69841e-19)
(0.000822454 2.72099e-05 0)
(0.00534807 0.00949238 1.95061e-20)
(0.00153145 0.00062996 -2.61109e-20)
(0.000819989 3.22948e-05 3.59866e-19)
(4.11145e-05 -8.57488e-05 0)
(0.00184794 0.000738668 5.46148e-19)
(1.04234e-05 8.34615e-06 -2.70216e-19)
(3.51911e-05 2.98133e-05 9.72046e-20)
(0.00132274 0.00139293 6.36659e-19)
(0.000736103 4.62201e-05 1.83149e-19)
(6.44185e-06 -2.02458e-06 -1.70244e-19)
(0.00206447 0.00155441 -1.05617e-18)
(0.000126566 0.00018164 -8.18916e-19)
(0.00392145 0.00848787 -1.09113e-18)
(6.57353e-06 1.86344e-06 8.8163e-20)
(0.000148508 -0.000150856 -1.25532e-18)
(5.31819e-05 -5.86549e-05 4.05744e-20)
(0.00152865 0.000975964 0)
(0.00103668 0.000139175 -4.08707e-22)
(0.000454542 0.000850178 -4.02187e-20)
(0.000802507 2.65883e-05 -2.33913e-19)
(8.71616e-05 0.000187856 7.3622e-19)
(3.64746e-05 -6.4481e-05 4.04113e-19)
(1.9302e-05 1.61599e-05 -9.47321e-20)
(3.3018e-05 9.55082e-05 -3.20361e-19)
(0.000202797 -0.000283734 -5.44961e-19)
(0.0032521 0.00345581 2.80787e-21)
)
;

boundaryField
{
    back
    {
        type            empty;
    }
    ingreso
    {
        type            fixedValue;
        value           uniform (0.0008 0 0);
    }
    salida
    {
        type            zeroGradient;
    }
    front
    {
        type            empty;
    }
    defaultFaces
    {
        type            noSlip;
    }
}


// ************************************************************************* //
