/*--------------------------------*- C++ -*----------------------------------*\
  =========                 |
  \\      /  F ield         | OpenFOAM: The Open Source CFD Toolbox
   \\    /   O peration     | Website:  https://openfoam.org
    \\  /    A nd           | Version:  8
     \\/     M anipulation  |
\*---------------------------------------------------------------------------*/
FoamFile
{
    version     2.0;
    format      ascii;
    class       volScalarField;
    location    "0.6";
    object      p;
}
// * * * * * * * * * * * * * * * * * * * * * * * * * * * * * * * * * * * * * //

dimensions      [0 2 -2 0 0 0 0];

internalField   nonuniform List<scalar> 
5756
(
4.71377e-06
1.29347e-05
1.7566e-05
1.62284e-05
1.97271e-05
1.64924e-05
1.82812e-05
1.85522e-05
2.19587e-05
2.04711e-05
2.07357e-05
2.42298e-05
2.27175e-05
2.29787e-05
2.50021e-05
1.2336e-05
2.52592e-05
2.65307e-05
0.000243541
7.32073e-06
2.73091e-05
2.75627e-05
2.88442e-05
2.96253e-05
2.98816e-05
3.19608e-05
0.000243689
0.000244286
3.22106e-05
3.11731e-05
0.000243213
3.43091e-05
0.00015774
3.45536e-05
0.00016691
0.00024302
0.00024424
3.35205e-05
0.000244594
3.66604e-05
0.000242673
3.6912e-05
0.000243604
0.000243425
3.58678e-05
0.000244278
0.000243158
4.21354e-05
1.12232e-05
0.000167314
0.000162329
4.23707e-05
4.13499e-05
4.44795e-05
3.84721e-05
0.000180329
4.47233e-05
0.000242015
0.00017207
0.000243236
4.00275e-05
0.000243575
0.000243939
0.000157925
4.68308e-05
4.36885e-05
0.000241531
9.25699e-06
0.000173855
4.70722e-05
0.000243315
0.000243742
1.05953e-05
4.91902e-05
0.000177711
1.1699e-05
4.60381e-05
4.94361e-05
0.000243187
1.64179e-06
0.000164168
0.000243393
0.000168016
5.15632e-05
4.8397e-05
1.17689e-05
5.18121e-05
0.000244424
0.000243194
0.000159114
0.00018297
5.07644e-05
5.33872e-05
1.07759e-05
3.76943e-05
3.92515e-05
9.79343e-06
5.49621e-05
0.0002427
5.26003e-05
5.41768e-05
5.57452e-05
5.6518e-05
3.82283e-05
0.000243407
9.17948e-06
1.04459e-05
5.73009e-05
5.80866e-05
9.27989e-06
3.97978e-05
0.000243074
0.000243366
0.000244022
0.000172484
0.000243253
4.16294e-06
0.000243255
0.00024331
0.000164109
0.000172438
2.10468e-06
0.00024329
5.49915e-05
0.000169266
0.00024336
9.63352e-06
5.34185e-05
9.24029e-06
8.695e-06
0.000242976
0.000243272
1.02432e-05
0.00024331
0.000165319
4.94432e-05
0.000243269
0.000242948
0.000242644
0.00024327
4.70721e-05
0.000243496
0.000244114
0.000163094
0.000170835
0.000243275
0.000173727
1.06785e-05
4.4736e-05
0.000243288
0.000243336
3.82308e-06
4.23996e-05
0.000160537
1.11154e-05
0.000236672
4.00628e-05
0.000243303
0.000242674
0.000167985
0.00024374
0.000162038
7.44993e-06
0.000243258
0.000159154
4.17751e-06
0.000243468
0.000243906
8.80404e-06
0.000243248
0.000243304
0.000243301
5.74761e-05
0.000164199
0.000243278
0.000244057
6.74963e-06
0.000243491
1.11262e-05
0.000243043
0.000242923
0.000244963
0.00016214
0.000160508
0.00024066
0.000244045
1.13874e-05
0.000244169
5.66463e-05
0.00024328
0.000166485
0.000243749
0.000243546
0.000243504
0.000243271
0.00016002
0.000243169
0.000243299
5.58558e-05
0.000166812
1.18331e-05
0.00024326
0.000243278
0.000243137
0.00024321
0.000240384
0.00024326
0.000243338
0.000243251
0.000242955
5.31401e-05
0.000243285
6.38378e-05
9.57319e-06
0.000243253
0.000243292
0.000160862
0.000243276
0.000165171
0.000244072
0.000243252
9.52656e-06
0.000160822
0.000165637
0.000243199
0.000243257
0.000164486
1.23888e-05
0.000243243
0.000243286
0.000243393
0.000243275
0.000243645
3.94786e-05
8.5847e-05
4.33981e-05
8.49098e-06
0.000242936
0.000242595
0.000243227
0.000243249
0.000243586
1.22903e-05
0.000243169
0.000167685
0.000243029
0.000243245
0.000243121
0.000243248
0.000242884
0.00024338
0.000242967
0.000243422
0.000243345
0.000243158
1.30058e-05
0.000243423
0.000243338
0.000243265
0.000243288
0.000243246
8.40901e-06
0.000243201
5.47174e-05
0.000243173
0.000243354
1.29025e-05
0.000244734
0.000243094
0.000244507
0.000243567
0.000233588
7.34489e-06
0.000243344
0.000243258
1.36134e-05
0.000163425
0.000242948
0.000243286
0.000243416
0.000242811
0.000243265
0.000243226
0.000243259
0.000243567
0.00024286
0.000243331
0.000161129
6.03024e-06
1.41099e-05
0.000162449
0.000163217
0.000243227
0.000243027
0.00024339
0.000243365
0.000175899
0.000243321
0.00024272
0.000243283
1.56702e-05
1.47495e-05
1.6014e-05
1.66471e-05
1.6203e-05
1.73123e-05
1.80041e-05
1.8713e-05
1.94368e-05
2.01617e-05
8.73257e-05
9.43665e-05
9.67258e-05
9.90805e-05
0.000101433
0.00010379
0.000106154
0.000114775
0.000117133
0.000119498
0.000124989
9.35841e-05
9.59405e-05
0.000127346
9.82935e-05
0.000100652
0.0001297
0.000103007
0.000105366
0.00013205
8.96899e-05
9.12568e-05
9.2826e-05
0.00013441
0.000113993
0.000116349
0.000136776
0.000118714
0.000124207
0.000126563
8.88836e-05
0.000108526
0.000142286
9.0454e-05
0.000128917
0.000110096
9.20186e-05
0.000111669
0.000131268
0.000113232
0.000144647
0.000133623
8.81216e-05
0.000135989
0.000147023
0.000121878
0.000141498
0.000123449
9.51802e-05
0.000143862
9.75308e-05
0.000107726
0.000146233
0.000109295
9.98866e-05
0.000110862
0.000102238
0.000112429
0.000104596
2.08997e-05
0.00010695
0.000139162
0.0001494
0.000121072
0.000140736
0.000122644
0.000151802
0.000115588
0.000160308
0.000117943
0.000161119
0.000154232
0.000120303
1.43931e-05
0.000156713
0.000148608
0.000125804
0.000151002
0.000128153
0.000138353
0.000139929
0.000130506
0.000153419
0.000159214
0.000132865
9.1198e-05
9.19789e-05
0.000155882
9.27636e-05
9.35479e-05
0.000135223
9.43292e-05
8.64811e-05
9.66743e-05
0.000137586
2.16462e-05
9.90279e-05
0.000101387
0.000103742
0.000161925
0.000148628
0.000150218
0.000151018
0.000106098
0.000143092
0.000153427
0.00015262
0.000155871
0.000108456
0.000109246
0.00014546
0.00011003
0.000155052
0.000110818
0.000111604
0.000112389
0.00011317
0.000157529
0.000147832
0.000113955
0.000114737
0.00015841
0.000117086
0.00016008
0.000119454
0.000121808
0.000122599
0.000123386
0.00012417
0.000124952
9.58905e-05
9.50939e-05
2.23908e-05
9.20418e-05
9.04724e-05
8.89041e-05
0.000107741
0.000109312
0.000112452
0.000110882
0.000122664
0.000121092
0.000138374
0.00013995
0.000164708
9.82443e-05
9.74454e-05
0.000127303
0.000100599
0.00015837
9.97984e-05
0.000102953
0.000102159
0.000129655
0.000105313
0.000104516
0.000107672
0.000106885
0.000132008
0.000163489
0.000134369
0.000116295
0.000162731
0.000115496
0.000136738
0.000118659
0.000117862
0.000121023
0.000120226
0.000139096
0.000164119
0.000139889
0.000126515
0.000140677
0.000125715
0.000141463
8.65484e-05
0.000128867
0.000128067
0.000142249
0.000131223
0.000130421
0.000133576
0.000163143
0.000132772
0.00014462
0.000135939
0.000135141
0.000138304
0.000137508
0.000146994
2.3143e-05
0.000165615
0.00016452
0.000143824
0.000143019
0.00015016
0.000165802
0.000146199
0.000145385
2.39031e-05
0.000164011
0.000163877
0.000148584
0.000147765
0.000149358
0.000152588
0.000164897
0.000165061
0.000150997
0.000162899
0.000160812
2.46613e-05
0.00016186
0.000151769
8.5254e-05
0.000161969
8.75789e-05
0.000162992
9.07447e-05
9.15268e-05
0.000153459
9.34403e-05
0.000161692
0.000161058
0.000161441
0.000102525
0.000103313
9.77825e-05
0.000155285
0.000165191
9.70258e-05
0.00010802
0.0001088
0.000104845
0.000160968
0.000156835
0.000160152
0.00011034
8.44625e-05
0.000113501
8.68291e-05
8.61004e-05
0.000157701
0.000117402
8.91857e-05
8.8359e-05
8.99182e-05
0.000161117
0.000156694
0.000119867
0.000158581
0.000115053
9.46781e-05
0.000159269
9.23901e-05
9.26608e-05
9.546e-05
9.6204e-05
0.000114285
0.000154295
0.000105614
0.000100161
2.54242e-05
0.000100944
9.85636e-05
0.000101699
0.000159486
0.000120659
0.000109583
9.94729e-05
0.00010646
0.000159291
0.000107195
0.000111945
0.000112689
0.000111118
0.000104108
0.000128402
6.0144e-05
0.000116664
0.000159695
0.000130754
0.000127646
0.000115833
0.000118183
0.000159378
6.25001e-05
0.000119079
0.000158423
0.000135499
0.000122932
0.00015756
0.000123668
2.61913e-05
0.00013629
0.000124505
0.000154439
6.48772e-05
0.000122497
0.000125249
3.37094e-05
0.000126078
0.000137078
3.9197e-05
0.00012683
0.000131528
6.68698e-05
5.8546e-05
5.89555e-05
6.76545e-05
4.15383e-05
6.08809e-05
0.000157617
0.000157332
6.13455e-05
0.000129185
0.00014253
0.000121454
0.000132348
0.000156706
0.000154231
0.000130019
0.0001331
0.000157558
0.000133925
0.000156337
6.3242e-05
4.38852e-05
0.000105672
0.000134677
6.37253e-05
6.56093e-05
0.000140538
7.03818e-05
0.000140783
2.6959e-05
6.6085e-05
0.000138989
3.66153e-05
3.50487e-05
0.000144877
0.000155864
3.6836e-05
3.52666e-05
0.000137943
0.000153172
3.29208e-05
3.84085e-05
3.27065e-05
4.62383e-05
0.000155066
7.23731e-05
0.0001588
3.8185e-05
0.000123011
0.000138213
0.000143308
0.00015081
4.07512e-05
4.05312e-05
0.000155031
6.87583e-05
0.000155903
0.000152382
6.92289e-05
0.000156138
7.31539e-05
0.000145653
0.000149574
0.000155981
6.09145e-05
5.85494e-05
7.1121e-05
8.41534e-05
0.0001516
4.28814e-05
5.61886e-05
4.30968e-05
7.15921e-05
7.30165e-05
7.39407e-05
0.000150021
0.000154755
0.000157896
7.06557e-05
0.000149237
6.32713e-05
0.000131562
0.0001514
0.000154202
0.000146464
0.000157005
7.47262e-05
5.38285e-05
4.85951e-05
0.000148447
0.000139215
0.000144124
5.30375e-05
6.83004e-05
7.19592e-05
0.000152165
0.000121719
0.000147657
0.000148014
0.000147216
4.54492e-05
0.000139757
0.000155055
7.55129e-05
5.22485e-05
7.43304e-05
0.00015338
0.000148782
6.96057e-05
7.45766e-05
6.40604e-05
7.22208e-05
6.74983e-05
4.52328e-05
5.69781e-05
5.9339e-05
5.46183e-05
0.000153964
6.1702e-05
2.77284e-05
0.000150438
6.98642e-05
6.7249e-05
0.000155139
6.64593e-05
0.000152927
5.09585e-05
7.62955e-05
0.000141324
6.5631e-05
0.000152564
0.000146876
4.75882e-05
7.50291e-05
0.000153599
8.37523e-05
8.3222e-05
0.000152609
0.000122155
5.71061e-05
6.56754e-05
9.93844e-05
4.78035e-05
0.000150639
0.000105738
5.94651e-05
0.000155688
6.48431e-05
0.000151753
8.60009e-05
0.000146089
0.000153405
5.47504e-05
6.64161e-05
0.000145687
7.70835e-05
6.18303e-05
5.14632e-05
0.000154971
7.69306e-05
2.85015e-05
5.05733e-05
0.000150945
5.54006e-05
0.000107242
0.000144638
4.97836e-05
0.000152763
6.84701e-05
0.000145303
0.000154184
5.70244e-05
9.23133e-05
0.00010677
5.7761e-05
5.0165e-05
7.78717e-05
6.92497e-05
0.000104487
0.000157244
5.23075e-05
0.000158619
7.86732e-05
0.000156434
0.000150143
2.85233e-05
0.000150201
0.000151739
0.000107553
0.000153414
0.000105992
5.30945e-05
7.9296e-05
0.000126706
6.76829e-05
7.61436e-05
7.80055e-05
0.000103167
0.000159313
5.78119e-05
0.000142385
0.000101731
0.000157166
0.000108346
0.00015194
0.000150961
0.000149342
0.000157176
0.000124365
2.92728e-05
0.000151131
9.89861e-05
2.81806e-05
9.9776e-05
5.38812e-05
0.00010528
2.09916e-05
3.58302e-05
5.56747e-05
0.000123579
5.25265e-05
0.000135845
2.00559e-05
0.000114623
9.62446e-05
0.000154933
0.000148542
0.000150326
2.02355e-05
0.000157897
6.2535e-05
0.000159989
6.84434e-05
0.000136067
3.73986e-05
0.000152728
3.46866e-05
9.76741e-05
0.000128032
7.86629e-05
0.000117834
5.53158e-05
5.41025e-05
7.59084e-05
8.57791e-05
9.29547e-05
0.000122103
8.12591e-05
0.000115165
0.000147239
0.000136904
0.00010913
0.000144993
3.70161e-05
5.54503e-05
0.000123328
5.46678e-05
3.32363e-05
0.000136641
6.45343e-05
9.4263e-05
2.29026e-05
3.85816e-05
0.000102919
7.98003e-05
0.000147743
0.000142169
6.35584e-05
1.47724e-05
6.71929e-05
1.92856e-05
2.89568e-05
7.84989e-05
0.000128821
3.61327e-05
1.75917e-05
4.9946e-05
0.000113106
7.3981e-05
6.47879e-05
8.19421e-05
6.41898e-05
0.000157485
4.31854e-05
9.1172e-05
0.000147819
8.5065e-05
7.82564e-05
0.000149364
1.36203e-05
0.000135053
6.21392e-05
0.000126866
0.000140207
8.68897e-05
4.71716e-05
0.000179353
0.000149522
0.00014873
6.33193e-05
0.000148559
3.07155e-05
9.74154e-05
7.23994e-05
3.00452e-05
4.97434e-05
0.000117046
3.54699e-05
6.09459e-05
0.000154256
0.000146771
8.008e-05
8.02488e-05
0.000100245
7.42637e-05
7.00341e-05
9.12958e-05
3.78611e-05
8.79262e-05
0.000146951
4.16775e-05
0.000160657
3.24555e-05
0.000126473
6.68936e-05
0.000161325
0.00014836
9.05842e-05
0.000102062
8.63931e-05
1.534e-05
7.87019e-05
3.3141e-05
4.87483e-05
0.000146208
7.94529e-05
0.000158735
0.000148571
0.00015729
0.000147536
7.94748e-05
0.00012529
7.94403e-05
0.00010936
7.73604e-05
8.45414e-05
8.18468e-05
3.00677e-05
1.68669e-05
7.67854e-05
0.000146159
5.85953e-05
3.15077e-05
7.79187e-05
6.68945e-05
5.35014e-05
4.73646e-05
0.000161093
8.09949e-05
9.46309e-05
7.16117e-05
8.71359e-05
0.000127485
5.42894e-05
9.47368e-05
6.4464e-05
0.000105445
2.93225e-05
3.22818e-05
0.000137816
0.000137065
8.60469e-05
0.000158264
0.000145636
7.7218e-05
1.71927e-05
8.16855e-05
0.000135514
0.000156796
5.60113e-05
0.000158593
7.36097e-05
7.07537e-05
0.000157254
0.000146998
0.000153315
0.000145442
9.30524e-05
6.53273e-05
7.93223e-05
6.29468e-05
6.60417e-05
0.000138626
8.0318e-05
8.21637e-05
5.90536e-05
0.000131938
0.000136122
3.73582e-05
0.000110374
0.000148302
8.49487e-05
5.89994e-05
0.000147925
4.17407e-05
2.12693e-05
7.86857e-05
7.4764e-05
3.39275e-05
3.6925e-06
4.24622e-05
0.000106152
2.51952e-05
5.82135e-05
0.000130385
0.000147126
8.98209e-05
7.09699e-05
8.23021e-05
8.96062e-05
0.000106855
0.000145367
5.81354e-05
7.39755e-05
6.99997e-05
5.21658e-05
3.16651e-05
2.44476e-05
5.19788e-05
3.93341e-05
6.1494e-05
0.000148864
3.15962e-05
5.68043e-05
0.000138477
0.000146333
0.000147788
0.000110669
2.83464e-05
0.00016196
3.92604e-05
2.48908e-05
8.88165e-05
0.000100497
0.000146176
0.000144579
0.000113829
0.000125063
8.10489e-05
8.22619e-05
2.84789e-05
7.94627e-05
0.000107012
0.00012336
0.000161741
7.99531e-05
0.00013164
5.37423e-05
5.847e-05
2.19791e-05
0.000136008
8.12944e-05
2.12778e-05
4.56854e-05
0.000162295
3.95416e-05
1.47582e-05
0.000143787
0.000114658
9.1372e-05
0.000147805
8.17827e-05
0.000103022
0.000144748
0.000148578
0.000160848
7.78521e-05
0.0001293
0.000132908
0.00012535
0.000110891
0.000159501
2.78989e-05
1.63703e-05
0.000117749
6.97193e-05
0.000133149
7.55425e-05
9.10663e-05
0.000122504
0.000160455
0.00014523
9.21088e-05
0.000111461
9.36109e-05
1.55756e-05
0.00014295
0.000134713
0.000149517
5.91661e-05
4.25202e-05
9.83621e-05
0.000144207
5.1357e-05
0.000152387
0.000135885
0.000146
0.000135154
1.87255e-05
8.65637e-05
0.00014316
5.29537e-05
5.88262e-05
7.27555e-05
7.74027e-05
9.62942e-05
0.000108032
5.14799e-05
1.79628e-05
9.21681e-05
6.15931e-05
2.42098e-05
0.00013871
5.02671e-05
9.84501e-05
2.59929e-05
8.97643e-05
0.000154996
0.00017803
0.000103934
1.9779e-05
0.000138338
2.20924e-05
4.56735e-05
0.000129967
8.76752e-05
0.000140807
0.000143801
3.77745e-05
6.7559e-05
0.000142997
2.99491e-05
0.000120956
4.71058e-05
2.34217e-05
7.06775e-05
5.58952e-05
0.000113342
8.56364e-05
5.9034e-05
0.000145537
0.00014139
7.95284e-05
0.000102595
0.000159695
8.0542e-05
9.09854e-05
0.000104528
5.66826e-05
0.000147978
7.08395e-05
0.000120287
5.88764e-05
6.91127e-05
0.000113142
0.000137312
8.49836e-05
3.1567e-05
1.94768e-05
0.000121752
9.38869e-05
0.000142206
0.000109557
7.16298e-05
1.86921e-05
2.27908e-05
3.38707e-05
9.57795e-05
7.77126e-05
0.000134725
6.37501e-05
7.08421e-05
0.00013078
0.000121954
4.94831e-05
5.19707e-05
2.46548e-05
0.000147585
0.000125319
7.23303e-05
6.98943e-05
0.000135342
1.67688e-05
2.35943e-05
3.62927e-05
4.80347e-05
6.24306e-05
0.000130484
4.00478e-05
0.000122546
0.000125734
0.00012186
0.000114073
8.58789e-05
0.000102282
0.000143653
1.9626e-05
0.000139492
5.43278e-05
8.81041e-05
0.000106943
3.31574e-05
0.000131332
9.54579e-05
0.000142382
0.000152654
1.95165e-05
3.79584e-05
0.00014908
6.53383e-05
7.08284e-05
9.83533e-05
0.000104099
0.000140713
7.90213e-05
3.62309e-05
0.000160018
0.000118732
3.70405e-05
3.08208e-05
7.46935e-05
0.000132663
7.25393e-05
4.93761e-05
3.15375e-05
8.33384e-05
0.000116264
3.77165e-05
7.16094e-05
0.000158589
6.70406e-05
0.000139792
9.05435e-05
4.34428e-05
0.000131331
6.78981e-05
2.11567e-05
0.00010703
7.39836e-05
7.94653e-05
0.000133196
4.32716e-05
3.44857e-05
2.75567e-05
0.000150773
0.000128087
0.00015789
9.27351e-05
9.11541e-05
0.000108409
7.16285e-05
6.92747e-05
0.000119752
5.45291e-05
5.48904e-05
6.00233e-05
0.000134782
0.000151652
1.04675e-05
0.00010058
9.66255e-05
3.8034e-05
2.99288e-05
8.33376e-05
7.24002e-05
5.74264e-05
6.05658e-05
4.64261e-05
2.03381e-05
0.000110358
0.00010152
0.000114016
5.90604e-05
8.028e-05
5.22744e-05
0.000147307
6.83323e-05
5.9948e-05
0.000148749
1.61505e-05
0.000141739
0.000164253
0.000123744
0.000135201
0.00012568
5.81159e-05
0.000161169
8.08573e-05
5.6701e-05
7.71159e-05
4.39516e-05
4.9799e-05
1.70418e-05
0.000120036
1.17052e-05
0.000101805
8.30984e-05
8.95716e-05
0.000112284
6.61146e-05
4.05747e-05
9.54186e-05
8.72944e-05
9.51546e-05
9.34837e-05
5.19306e-05
1.30217e-05
0.000160145
0.000102134
4.03186e-05
0.000108511
0.000156902
1.63884e-05
8.35089e-05
0.000158534
4.23147e-05
7.50571e-05
0.000153694
0.00014396
6.78202e-05
9.27018e-05
0.000147999
6.13455e-05
9.52197e-05
0.000106886
0.000162267
3.86377e-05
0.000124827
8.02293e-05
1.90342e-05
5.8247e-05
0.000125777
0.000121131
0.000143075
0.000138235
5.50667e-05
9.27254e-05
5.39278e-05
0.000141442
1.34799e-05
4.82233e-05
0.000110111
0.000114364
0.000129763
0.000129207
3.14991e-05
0.000136048
9.3955e-05
8.26352e-05
0.000151453
9.75075e-05
0.000139788
0.000129604
0.00011321
0.000106213
4.9534e-05
5.03851e-05
8.26179e-05
0.00010222
0.000111645
2.43367e-05
0.000110078
9.60071e-05
1.55731e-05
9.68034e-05
2.59506e-05
0.000119007
0.000136293
0.000133887
0.000120359
8.52134e-05
7.24175e-05
1.39411e-05
0.000113886
5.92261e-05
1.83099e-05
7.23557e-05
6.1388e-05
3.74437e-05
1.87724e-05
0.000104578
9.42929e-05
1.5006e-05
7.37967e-05
8.96682e-05
7.23947e-05
7.00589e-05
0.000146439
0.000168896
6.63557e-05
0.000126587
4.46644e-05
6.21667e-05
0.00012861
0.000159559
0.000109551
0.000110747
8.42153e-05
8.26675e-05
8.81598e-05
7.36568e-05
0.000135256
9.02927e-05
5.82564e-05
0.000109349
0.000140636
0.000104664
7.94927e-05
0.000128052
0.000104061
0.000149132
0.000148159
9.69896e-05
0.000149565
8.24596e-05
8.11031e-05
0.000143927
0.00013426
0.000138292
0.000120601
0.000107779
0.000131292
2.12127e-05
3.84837e-05
5.44257e-05
1.9604e-05
0.000156585
0.000139063
6.48791e-06
2.41077e-05
0.000137688
6.92215e-05
0.000124535
7.81106e-05
9.81995e-05
0.000132839
0.000159449
9.59968e-05
2.27897e-05
0.000134491
6.43434e-05
7.95692e-05
5.23507e-05
4.72552e-05
2.34704e-05
0.000147029
0.000121736
9.19198e-05
7.79612e-05
5.27183e-05
0.000146605
0.000161586
8.49131e-05
0.000140281
7.3431e-05
7.15413e-05
4.25926e-05
1.87782e-05
9.89943e-05
0.000109394
0.000156365
7.86479e-05
4.01788e-05
1.39775e-05
9.91568e-05
2.92871e-05
7.78529e-05
3.05359e-05
0.000147781
0.000104635
8.2425e-05
4.79854e-05
3.60518e-05
4.17398e-05
6.61227e-05
7.62506e-05
0.000132315
8.32487e-05
8.81702e-05
0.000131187
3.94694e-05
0.000152215
4.0896e-05
0.00013568
0.000143172
6.29135e-05
0.000111398
3.07814e-05
2.7621e-05
9.28012e-05
0.000129972
6.85307e-05
7.7048e-05
6.94869e-05
8.47792e-05
0.000112897
6.95581e-05
0.000139849
6.92535e-05
0.000153675
5.15162e-05
0.000119972
6.40515e-05
0.000135462
7.14341e-05
4.40528e-05
6.2243e-05
5.93451e-05
8.87713e-05
7.54821e-05
1.95834e-05
5.2381e-05
4.79596e-05
4.09601e-05
9.05162e-05
3.90106e-05
9.2268e-05
2.09648e-05
7.16796e-05
3.76231e-05
0.000123426
1.71648e-05
7.00536e-05
6.48882e-05
6.68991e-05
0.000123346
9.36703e-05
3.70018e-05
0.000115482
0.000106402
6.3757e-05
5.37151e-05
4.50852e-05
5.66352e-05
6.12102e-05
8.26107e-05
0.000137566
0.000112486
8.54842e-05
3.0131e-05
0.00014142
0.000100914
6.1682e-05
0.000126093
1.68813e-05
0.000111523
0.000146035
2.83317e-05
2.61972e-05
0.000163305
4.42406e-05
2.11324e-05
0.000117923
3.47122e-05
0.00013914
8.32706e-05
5.89951e-05
0.000123721
2.12279e-05
1.52816e-05
3.70772e-05
8.69968e-05
0.000162499
9.50761e-05
1.44048e-05
0.000128998
0.000114053
4.01353e-05
8.10683e-05
8.29552e-05
0.000121321
7.31192e-05
0.000157322
3.85558e-05
4.31306e-05
8.13052e-05
7.60002e-05
5.72786e-05
3.9996e-05
8.89874e-05
8.77862e-05
6.61247e-05
4.01127e-05
0.000117616
4.80287e-05
3.95984e-05
0.000138594
5.91038e-05
7.65745e-05
6.01554e-05
0.000116613
9.19401e-05
0.000120164
0.000157605
0.000114257
5.51369e-05
0.000134779
1.79984e-05
5.33474e-05
9.17193e-05
0.000146405
6.59204e-05
8.28506e-05
0.000136243
8.02439e-05
1.79338e-05
7.53629e-05
0.00012446
3.52922e-05
6.44948e-05
0.000107796
9.87847e-05
7.31388e-05
6.13205e-05
5.21412e-05
9.44512e-05
0.000131641
0.000157723
6.27823e-05
0.000115562
0.000106522
3.88994e-05
0.000139023
8.91362e-05
4.99759e-05
9.74285e-05
9.38449e-05
8.08884e-05
5.57054e-05
8.18791e-05
2.43823e-05
0.000117838
2.77383e-05
7.87432e-05
7.63269e-05
6.53757e-05
0.000111169
0.000102136
4.41076e-05
0.000139863
1.77805e-05
5.35548e-05
0.000117506
8.16333e-05
0.000101021
0.000104948
4.76145e-05
0.000135281
3.03974e-05
8.00961e-05
0.00015818
0.000126148
2.11296e-05
2.74334e-05
1.24605e-05
1.61444e-05
9.83169e-05
0.000108534
0.000111564
3.54284e-05
9.98673e-05
0.00010983
6.93131e-05
0.000143417
6.81011e-05
8.61027e-05
9.78805e-05
3.30648e-05
0.000152009
0.000105839
5.51766e-05
9.39544e-05
0.000103373
3.50869e-05
2.43572e-05
0.000151883
9.35091e-05
2.66476e-05
0.000151198
9.12347e-05
4.20953e-05
5.36417e-05
0.000127717
0.000125701
3.76459e-05
6.79165e-05
2.01249e-05
0.000110424
9.03698e-05
0.000155887
0.000130072
1.94977e-05
6.51259e-05
0.000105739
0.000128132
0.000127638
4.78421e-05
8.09997e-05
0.00012604
7.28582e-05
4.96596e-05
5.27097e-05
0.000109324
0.000101269
0.000154016
2.5245e-05
8.76083e-05
8.18371e-05
9.91542e-05
2.77409e-05
0.000128502
8.26351e-05
0.000124575
7.45777e-05
3.30723e-05
1.69958e-05
6.12086e-05
7.913e-05
0.000117213
0.000161163
5.55306e-05
0.000135907
0.000153115
0.000132734
8.56208e-05
2.31486e-06
4.64202e-05
0.000124132
0.000118768
3.27392e-05
0.00013044
3.29375e-05
6.5256e-05
0.00015198
7.15732e-05
8.80321e-05
7.78826e-05
7.24677e-05
5.14268e-06
7.22126e-05
6.67142e-05
0.000133208
9.31094e-05
9.46664e-05
2.6745e-05
7.37888e-05
4.47007e-05
3.81289e-05
0.000159166
2.5675e-05
5.28165e-05
0.000132424
8.05096e-05
3.21527e-05
9.36436e-05
0.000132531
4.39153e-05
8.65927e-05
8.53154e-05
7.55594e-05
4.57264e-05
6.19952e-05
9.78222e-05
0.000149673
7.63451e-05
2.35158e-05
0.00013489
3.58911e-05
0.000160997
1.63146e-05
2.36279e-05
2.58614e-05
6.26158e-05
0.000128436
3.60786e-05
0.000147197
7.08887e-05
4.24177e-05
0.00012144
4.54855e-05
8.62104e-05
8.5263e-05
1.32019e-05
3.47695e-05
7.14239e-05
0.000107242
0.00016193
0.000103483
0.000144872
7.79293e-05
0.000101918
0.000159682
7.94333e-05
0.000119867
1.59008e-05
0.000107305
0.000136364
7.94373e-05
7.5467e-05
0.000101807
0.000136525
0.000123513
0.000113133
0.000111704
0.000125835
0.000110537
4.80822e-05
6.68675e-05
0.000141065
9.93883e-05
0.000138276
8.10653e-05
0.000156188
0.000105276
7.71345e-05
0.000122885
2.23742e-05
0.000135102
2.50772e-05
8.08961e-05
9.74626e-05
6.90854e-05
8.24805e-05
0.000136471
0.000106228
0.00011672
0.000114363
4.55362e-05
0.000112792
0.000132362
0.000113577
4.15614e-05
0.000155471
0.000110445
6.08112e-05
5.92533e-05
4.23458e-05
4.881e-05
0.000149694
0.000115259
0.000123008
0.0001442
6.90628e-05
0.0001329
6.38109e-05
0.000108776
0.000102588
5.73241e-05
0.000103326
0.000138711
8.35054e-05
8.11633e-05
0.000150456
1.789e-05
3.77877e-05
9.63113e-05
8.80706e-05
0.000126867
4.07787e-05
5.33163e-05
6.9849e-05
0.000101768
6.67784e-05
2.27525e-05
9.59644e-05
0.000104492
0.000135568
1.86907e-05
8.95886e-05
2.82185e-05
0.000137657
0.000155071
4.2488e-05
7.4829e-05
7.30371e-05
2.90034e-05
1.85241e-05
0.00010809
0.000118961
4.09203e-05
0.00015891
0.000140954
9.32883e-05
9.64306e-05
1.70991e-05
8.06926e-05
0.000162848
7.56127e-05
0.000126937
2.2494e-05
0.000152729
0.000150463
0.000111229
0.000127614
9.58579e-05
2.97911e-05
9.99399e-05
0.00011515
4.291e-05
0.000109658
6.69174e-05
4.87689e-05
9.4739e-05
9.86677e-05
8.4917e-05
4.18117e-05
0.000151236
5.49187e-05
4.70557e-05
0.000137143
7.82382e-05
6.51439e-05
2.31308e-05
4.70169e-05
4.62696e-05
2.697e-05
8.68884e-05
0.000108183
8.67865e-05
1.47479e-05
3.66742e-05
9.94482e-05
2.03123e-05
4.33741e-05
8.64239e-05
4.96037e-05
5.80646e-05
3.92118e-05
2.32631e-05
0.000162659
2.60968e-05
0.000108873
0.000119076
0.000129616
0.00011092
2.5179e-05
1.58745e-05
4.95543e-05
8.76774e-05
0.000133697
0.000130857
4.32511e-05
0.000122224
0.000148892
6.35708e-05
5.31715e-05
0.000108075
5.17716e-05
9.09273e-05
0.000109171
0.000109211
8.25707e-05
2.20337e-05
7.6531e-05
8.88068e-05
0.000111319
5.01987e-05
9.4073e-05
9.1523e-05
2.43922e-05
0.000131974
2.91585e-05
0.000156656
8.55624e-05
0.0001312
6.45965e-05
5.0342e-05
0.000106513
0.000124145
6.60806e-05
7.44046e-05
5.67471e-05
2.80754e-05
3.49007e-05
0.000106062
3.37205e-05
1.17729e-05
9.0508e-05
0.000125482
1.39732e-05
0.000137926
0.000127824
0.000101139
7.87153e-05
0.000153471
7.30047e-05
0.000139198
8.92505e-05
0.000115645
0.000162786
0.000125052
0.000118288
9.23826e-05
8.50013e-05
0.000127428
0.000110615
2.91235e-05
7.87919e-05
0.000104162
0.000112008
4.56289e-05
7.94993e-05
9.99241e-05
1.55323e-05
0.0001119
8.02866e-05
0.000107401
7.62851e-05
5.9612e-05
3.3204e-05
7.62669e-05
6.84699e-05
2.3896e-05
6.57647e-05
0.000138048
1.25993e-05
0.000129778
3.86235e-05
0.000120766
9.79992e-05
0.000120654
8.401e-05
0.000156572
6.82808e-05
4.41605e-05
0.00011637
7.51991e-05
6.43587e-05
9.98154e-05
4.72401e-05
4.80227e-05
0.000134103
7.73212e-05
0.00011092
0.000144093
0.000140281
7.0638e-05
3.93526e-05
5.41326e-05
8.27246e-05
0.000147331
0.000139077
4.3515e-05
5.76464e-05
7.40359e-05
3.42657e-05
4.11648e-05
0.000145056
9.0202e-05
0.000121918
3.24201e-05
3.08483e-05
0.000142722
3.46431e-05
2.42959e-05
0.000124704
7.10618e-05
3.84286e-05
2.16213e-05
0.000121556
6.89321e-05
8.45279e-05
8.81977e-05
6.67083e-05
3.33452e-05
5.09847e-05
0.000105902
8.93597e-05
3.63366e-05
1.79382e-05
6.61693e-05
8.10166e-05
7.7144e-05
0.00012561
0.000145831
0.000118001
3.27587e-05
5.88494e-05
5.51235e-05
0.000132759
0.000128835
5.96336e-05
5.82675e-05
6.84348e-05
7.53698e-05
0.000119413
9.01458e-05
4.72979e-05
7.34701e-05
3.45041e-05
1.65297e-05
0.000144278
0.00012099
0.000144984
6.30759e-05
9.16008e-05
0.0001184
0.000136356
8.84645e-05
0.000104266
0.000134332
2.27288e-05
0.000137486
6.21252e-05
1.94975e-05
0.000108419
0.000151222
8.37344e-05
8.05845e-05
8.32519e-05
8.34249e-05
0.000155728
0.000115938
0.000121169
0.000135119
3.68624e-05
0.000131749
6.7498e-05
0.000128192
0.000100232
4.4446e-05
0.000137028
0.000148112
0.000155116
0.000155947
4.02479e-05
0.000133992
9.08193e-05
0.000130173
0.000146546
3.5551e-05
2.69692e-05
0.000154342
4.86284e-05
6.31633e-05
7.31855e-05
0.000170344
9.7095e-05
9.3169e-05
7.1569e-05
8.63478e-05
0.000160416
5.25601e-05
7.58483e-05
0.000123793
0.000116267
0.000117277
0.000125862
0.000109643
7.81477e-05
0.000117982
2.8678e-05
5.52882e-05
0.000106073
1.78381e-05
0.000129288
0.000103876
0.000140768
3.93622e-05
0.000107633
6.77504e-05
5.4282e-05
3.78002e-05
1.86579e-05
0.000148927
0.000144442
5.75325e-05
7.23543e-05
0.000115622
0.00012082
0.000158938
6.92192e-05
5.12394e-05
0.000140379
0.000110779
0.000100738
0.000117052
7.31857e-05
7.63949e-05
0.000143499
6.04204e-05
0.000114699
7.32493e-05
5.2028e-05
4.03809e-05
0.000152963
7.55251e-05
3.82424e-05
6.06724e-05
6.06353e-05
7.6621e-05
6.05629e-05
0.000112349
0.000118788
0.000127268
0.000123916
3.16359e-05
9.51092e-05
2.08118e-05
6.87019e-05
0.00010662
0.000107813
0.000136084
0.000152785
5.50737e-05
3.55139e-05
8.25499e-05
0.000101352
3.86901e-05
0.000120344
6.49766e-05
0.000138818
0.000145764
3.79074e-05
4.9414e-05
0.000143336
0.000107634
2.08711e-05
0.000118625
6.59307e-05
0.000158153
8.04728e-05
0.000157419
0.000119183
0.000154425
0.000125361
0.000158366
0.000130956
8.73809e-05
5.59607e-05
7.18474e-05
3.13681e-05
5.78885e-05
0.000153564
3.71232e-05
0.000116049
0.000121142
8.18504e-05
4.24866e-05
0.000157054
6.02498e-05
7.00055e-05
7.74704e-05
3.78435e-05
7.39228e-05
0.000142632
0.000128849
6.76503e-05
5.45009e-05
5.83173e-05
5.36053e-05
6.88857e-05
6.37025e-05
0.000109996
6.63173e-05
1.93861e-05
4.79078e-05
0.000136869
0.000122343
0.000141849
0.000118543
2.19353e-05
3.647e-05
3.00643e-05
8.50093e-05
6.30266e-05
4.33116e-05
0.000128978
0.00015187
6.52892e-05
4.19487e-05
0.000108971
3.47238e-05
4.72056e-05
0.000117873
5.6494e-05
6.13427e-05
0.000141943
2.46629e-05
0.000133456
0.000119785
3.85717e-05
0.000154207
3.99704e-05
0.000126932
0.000109043
6.29725e-05
2.99157e-05
8.85749e-05
0.000138452
0.000113692
0.000124918
0.000126647
0.000139595
0.000126259
5.93731e-05
7.47033e-05
3.22845e-05
9.00357e-05
7.39695e-05
7.3815e-05
7.56707e-05
5.98884e-05
0.000110963
1.86719e-05
3.6255e-05
7.48845e-05
0.000102921
0.000154938
6.1455e-05
0.000109756
7.99119e-05
0.000139495
9.82113e-05
0.000160077
0.000149075
0.000140695
0.000135924
0.000108861
0.000121774
2.97374e-05
0.000151964
3.69453e-05
8.25466e-05
0.000148551
2.01335e-05
0.00011979
2.59714e-05
3.05828e-05
0.000163243
5.74228e-05
0.000158985
4.52588e-05
0.000132115
0.000148078
9.35202e-05
4.68003e-05
9.55245e-05
4.56729e-05
2.03171e-05
0.000107293
5.1921e-05
0.000132788
0.000155875
4.88163e-05
9.66401e-05
5.97818e-05
0.000126147
0.000116278
0.000155658
4.27318e-05
4.65128e-05
0.000113916
0.000120199
5.19625e-05
4.10292e-05
4.564e-05
8.72113e-05
0.000109956
9.1952e-05
0.000103706
5.11317e-05
0.000138243
3.56869e-05
0.000116835
4.79881e-05
3.14956e-05
9.58744e-05
2.51563e-05
9.48625e-05
0.000118804
0.000137263
6.39482e-05
0.000106846
8.1664e-05
9.9573e-05
0.000141162
0.000114474
9.97817e-05
9.86049e-05
0.000157909
2.67857e-05
0.000127041
6.53221e-05
0.000101497
5.82656e-05
0.000123485
0.000153914
0.000122729
9.28882e-05
5.74795e-05
4.49438e-05
7.01008e-05
9.56512e-05
2.54287e-05
8.6049e-05
0.000100127
5.43916e-05
6.00401e-05
0.000139238
0.000114836
3.2331e-05
9.68906e-05
0.0001053
6.69595e-05
0.000102698
9.72126e-05
0.000124099
0.000101511
2.68272e-05
9.2078e-05
8.17998e-05
8.80263e-05
3.46563e-05
1.36138e-05
0.00012726
7.07891e-05
0.000114852
6.55662e-05
8.02207e-05
0.000136696
0.000100358
2.75398e-05
8.33822e-05
0.000132412
7.39101e-05
3.39053e-05
7.96815e-05
0.000143116
8.84617e-05
8.53158e-05
0.000126484
0.00015798
0.000161356
4.32699e-05
2.05282e-05
8.34012e-05
8.68301e-05
0.000129391
3.0706e-05