/*--------------------------------*- C++ -*----------------------------------*\
  =========                 |
  \\      /  F ield         | OpenFOAM: The Open Source CFD Toolbox
   \\    /   O peration     | Website:  https://openfoam.org
    \\  /    A nd           | Version:  8
     \\/     M anipulation  |
\*---------------------------------------------------------------------------*/
FoamFile
{
    version     2.0;
    format      ascii;
    class       volScalarField;
    location    "0.6";
    object      p;
}
// * * * * * * * * * * * * * * * * * * * * * * * * * * * * * * * * * * * * * //

dimensions      [0 2 -2 0 0 0 0];

internalField   nonuniform List<scalar> 
17372
(
8.53458e-06
1.66668e-05
5.19308e-06
1.21025e-05
1.67646e-05
1.67189e-05
3.77265e-06
1.61733e-05
3.22716e-06
1.62258e-05
8.09571e-06
1.67344e-05
1.70282e-05
1.73965e-05
3.54374e-06
1.12179e-05
1.67289e-05
1.67326e-05
1.77343e-05
1.60808e-05
3.41455e-06
1.46531e-06
9.0465e-06
1.60724e-05
1.67817e-05
3.28361e-06
9.67376e-06
5.3506e-06
1.77814e-05
9.42911e-06
3.45417e-06
1.6757e-05
9.17651e-06
3.18396e-06
1.58002e-05
1.17679e-05
3.08315e-06
1.67287e-05
3.36223e-06
1.50799e-05
9.91323e-06
2.0061e-06
5.22264e-06
1.64364e-05
1.34784e-05
8.91513e-06
1.67273e-05
1.0218e-05
2.94734e-06
1.11099e-05
1.66684e-05
3.63386e-06
5.58781e-06
5.10441e-06
1.67516e-05
1.67611e-05
2.80668e-06
1.0607e-06
3.6872e-06
1.62912e-05
1.14575e-05
1.64553e-05
9.30372e-06
1.22229e-05
5.45716e-06
1.61946e-05
3.62593e-06
5.00255e-07
3.79921e-07
1.6721e-05
1.68015e-05
8.16317e-06
4.25843e-06
1.16205e-05
1.53673e-05
1.3406e-05
4.50569e-06
1.34961e-05
1.42389e-05
1.43492e-05
1.67391e-05
3.92929e-06
3.67873e-06
1.67628e-05
1.67223e-05
1.33517e-05
1.12213e-05
1.21858e-05
2.7248e-06
1.63615e-05
1.43919e-06
2.1925e-06
1.64633e-05
1.68526e-05
1.63388e-05
1.01532e-05
1.80918e-05
1.67296e-05
1.675e-05
1.61513e-05
1.69735e-05
9.33857e-06
1.67251e-05
1.62657e-05
3.92113e-06
2.50287e-06
1.08692e-05
1.62489e-05
1.67634e-05
9.58609e-06
1.0575e-06
1.66344e-05
9.83095e-06
1.08889e-05
3.11293e-06
1.52059e-06
1.00738e-05
2.39814e-06
1.40611e-06
1.03133e-05
3.33789e-06
1.05479e-05
3.5717e-06
2.44833e-06
1.6718e-05
3.80418e-06
6.3488e-06
1.64362e-05
1.67609e-05
1.07774e-05
4.03981e-06
6.61656e-06
9.55179e-06
1.09987e-05
6.07766e-06
1.64757e-05
8.57033e-06
5.80535e-06
1.49025e-05
1.67572e-05
1.63381e-05
5.53088e-06
5.1199e-06
4.27496e-06
1.64184e-05
4.8712e-06
4.62949e-06
1.69007e-05
1.67e-05
1.19678e-05
1.8398e-06
1.1993e-05
8.54046e-07
3.79582e-06
1.66619e-05
3.81403e-06
1.49835e-05
1.67645e-05
1.6291e-05
9.08398e-06
4.15701e-06
1.67562e-05
4.80117e-06
1.6926e-05
1.03931e-05
1.65302e-05
1.10212e-05
1.68723e-05
1.76271e-06
1.11735e-05
3.54778e-07
2.16182e-06
1.2725e-05
1.66126e-05
6.88312e-06
4.98862e-06
4.56118e-06
1.60559e-05
1.64194e-05
1.67633e-05
1.59096e-05
8.77042e-06
1.63797e-05
1.33606e-06
5.26513e-06
4.91579e-06
1.45589e-06
1.67455e-05
3.24641e-07
1.67797e-05
8.87249e-07
1.38041e-05
2.89342e-06
1.64694e-05
1.06626e-05
1.6765e-05
1.02013e-05
2.2894e-06
1.66658e-05
1.62941e-05
1.67645e-05
1.63785e-05
1.67628e-05
5.62676e-06
8.01007e-07
1.67685e-05
8.86587e-06
1.67116e-05
1.31833e-05
4.50887e-06
9.80173e-06
9.79359e-06
9.23948e-06
9.57689e-06
1.67256e-05
2.27373e-06
9.11929e-06
1.53166e-05
1.69897e-05
1.25914e-06
5.37899e-06
1.62415e-05
1.67601e-05
1.71347e-05
4.39113e-06
1.68415e-05
1.12539e-05
1.57951e-05
1.66751e-05
8.82879e-06
1.67306e-05
8.988e-06
1.6568e-05
1.42283e-05
1.41396e-05
1.72532e-05
1.63495e-05
2.09192e-06
3.33355e-07
6.00904e-06
5.91492e-06
1.17436e-05
1.67697e-05
1.67685e-05
1.66682e-05
1.06288e-05
1.72813e-05
5.48458e-06
9.2375e-07
1.67656e-05
1.67704e-05
6.01568e-06
3.19339e-07
2.07731e-06
1.67655e-05
8.97348e-06
7.27246e-06
1.67401e-05
4.68583e-06
1.68561e-05
1.38802e-06
1.9015e-06
1.68537e-05
1.68262e-05
1.67577e-05
1.6797e-05
1.17322e-05
1.66932e-05
1.80659e-06
1.67672e-05
1.48336e-05
1.07435e-05
1.62589e-05
1.69356e-05
1.69006e-05
1.2107e-05
1.04308e-05
1.71419e-05
1.68797e-05
1.63313e-05
1.6905e-05
1.67632e-05
1.41948e-05
1.67769e-05
1.00324e-05
1.55755e-05
1.06227e-05
4.03044e-06
2.61899e-06
1.64363e-05
8.49321e-06
1.65041e-05
8.58013e-06
8.35998e-06
1.63366e-05
4.32946e-06
1.30641e-05
1.70508e-05
1.4324e-05
1.67855e-06
1.12424e-06
1.67783e-05
2.85126e-06
1.67664e-05
1.67615e-05
1.6408e-05
1.57643e-05
8.2802e-06
3.08414e-06
1.67079e-05
1.42496e-05
1.74779e-05
9.34608e-06
1.67782e-05
1.61941e-05
1.60536e-05
1.09668e-05
1.66258e-05
1.68222e-05
2.21081e-06
1.49537e-05
1.68311e-05
4.74871e-06
1.74528e-05
1.59434e-05
1.62334e-05
1.62198e-05
1.67777e-05
1.66288e-05
1.34349e-05
5.3911e-06
1.64465e-05
1.67621e-05
3.95698e-06
7.68609e-06
3.24003e-06
1.67794e-05
4.46428e-06
4.71494e-06
1.69759e-05
5.01295e-06
1.66769e-05
1.59697e-05
9.11995e-06
1.53563e-06
5.19335e-06
1.67717e-05
1.54568e-06
2.06293e-06
1.46022e-05
1.678e-05
1.60754e-05
1.67581e-05
2.15216e-06
4.49958e-06
1.67665e-05
1.6049e-05
1.1548e-05
1.67807e-05
3.48369e-06
1.66584e-05
1.67896e-05
4.8182e-06
4.2659e-06
3.75145e-06
1.67787e-05
1.67597e-05
1.62843e-05
4.01821e-06
1.71684e-05
1.55492e-05
1.67488e-05
1.67568e-05
1.71075e-05
1.59778e-05
1.67793e-05
1.8601e-06
1.48303e-05
1.72858e-05
1.6759e-05
1.67631e-05
8.33388e-06
1.60827e-05
1.01932e-05
1.6769e-05
1.65385e-05
1.08215e-05
7.48714e-06
1.63692e-05
1.66062e-05
1.62971e-05
1.67388e-05
1.02733e-05
1.56997e-05
1.67445e-05
9.74496e-07
1.68449e-05
1.67477e-05
1.67624e-05
1.67624e-05
8.0134e-06
1.67581e-05
1.64879e-05
1.12827e-05
4.58896e-06
4.44962e-06
1.68096e-05
3.95356e-07
1.66981e-05
1.43527e-05
1.67703e-05
1.57614e-05
3.37935e-07
5.15178e-06
4.99576e-06
1.67584e-05
1.10758e-05
1.67653e-05
1.50431e-05
1.34478e-05
1.65925e-05
1.74165e-05
4.71504e-06
1.71193e-05
4.60888e-06
1.46406e-05
1.64037e-05
2.2509e-06
1.64399e-05
1.6037e-05
1.64812e-05
1.47348e-05
6.79931e-06
1.2158e-05
2.94072e-06
1.53942e-05
1.63329e-05
7.00694e-06
1.72393e-05
1.67719e-05
1.64077e-05
1.6783e-05
1.59778e-05
1.66823e-05
1.67617e-05
1.62594e-05
1.67933e-05
2.81342e-07
6.66894e-06
1.63355e-05
1.67508e-05
1.68123e-05
3.93133e-06
4.07548e-06
2.31349e-06
1.67667e-05
1.67757e-05
1.62998e-05
1.65234e-05
1.62374e-05
1.63065e-05
1.19308e-05
1.67511e-05
8.25091e-06
3.56691e-07
7.41686e-06
1.71557e-05
1.33216e-05
1.66564e-05
1.07861e-05
3.72882e-06
1.45574e-05
1.67479e-05
1.68606e-05
1.62226e-05
1.66854e-05
1.16336e-06
1.67536e-05
3.99229e-06
1.67777e-05
1.1332e-05
1.46137e-05
1.61382e-05
2.89532e-06
1.65279e-05
1.63373e-05
2.61099e-06
1.67762e-05
1.67696e-05
1.55857e-06
1.17391e-05
3.94902e-08
2.04971e-06
5.25208e-06
8.80437e-07
1.67731e-05
9.95216e-06
1.67721e-05
1.69517e-05
1.64851e-05
1.05112e-05
1.93081e-06
1.67615e-05
1.68119e-05
1.67786e-05
2.03293e-06
1.67862e-05
1.70823e-05
1.80404e-06
1.67601e-05
4.49879e-06
1.07351e-05
7.92127e-06
1.63511e-05
1.23857e-05
1.45397e-06
1.67029e-05
1.08523e-05
1.40069e-05
1.09092e-05
1.66831e-05
1.67732e-05
4.92364e-06
1.67756e-05
1.66554e-05
1.67669e-05
8.50915e-06
1.16264e-05
1.68429e-05
1.64507e-05
1.11299e-05
8.40047e-07
1.68735e-05
1.39374e-05
1.08065e-05
6.28266e-06
1.09382e-05
1.67792e-05
9.46208e-06
1.68951e-05
1.99749e-06
1.1357e-05
1.76544e-05
1.61115e-05
1.65158e-05
1.66122e-05
1.65582e-05
1.70867e-05
1.71282e-05
1.15914e-05
1.35932e-05
1.54815e-05
1.67777e-05
1.55919e-06
1.13831e-05
1.73484e-05
1.67655e-05
1.66473e-05
1.67796e-05
1.18356e-05
1.14505e-05
5.11451e-06
8.70732e-06
7.16112e-06
1.05419e-06
1.63583e-05
4.20118e-06
1.67584e-05
1.20827e-05
1.8102e-06
2.5613e-06
1.41094e-05
1.6413e-05
1.67804e-05
1.23351e-05
1.40752e-05
1.67803e-05
9.99217e-06
4.15032e-06
1.74887e-05
1.27082e-05
3.96975e-06
7.85215e-06
1.65988e-05
1.37097e-05
1.66035e-05
1.63897e-05
4.00048e-06
1.62598e-05
1.51168e-05
1.54383e-05
1.6752e-05
1.74795e-05
1.58989e-05
1.6543e-05
8.77205e-06
1.67466e-05
1.67796e-05
2.04841e-06
1.77652e-06
1.15605e-05
7.66105e-06
1.68566e-05
1.2622e-05
1.59487e-05
1.76436e-05
1.6746e-05
1.67588e-05
1.23889e-05
2.44937e-06
1.64928e-06
1.67009e-05
1.5843e-05
1.67777e-05
1.71423e-05
1.67726e-05
1.0809e-05
3.82052e-06
1.11006e-05
1.71773e-06
9.70826e-06
1.43261e-05
5.31787e-06
1.15224e-05
1.12075e-05
1.00635e-05
1.65843e-05
2.91847e-06
1.70769e-05
1.62345e-05
1.67819e-05
1.62761e-05
6.78314e-07
1.68656e-05
2.17241e-06
7.53073e-06
1.65782e-05
1.74472e-06
1.60656e-05
5.66757e-06
1.65021e-05
1.68719e-05
1.67316e-05
2.13562e-06
1.67701e-05
1.62933e-05
4.69321e-06
1.41932e-05
3.18997e-07
1.66574e-05
1.53696e-05
1.67881e-05
1.62308e-05
2.1757e-06
1.4063e-05
1.44617e-05
1.31382e-05
1.61748e-05
1.68399e-05
1.40583e-05
1.67455e-05
1.57272e-05
1.66236e-05
1.45985e-05
1.67975e-05
1.60451e-05
9.03299e-06
5.30211e-07
7.1427e-06
5.49727e-06
9.27582e-06
3.70913e-06
1.66829e-05
1.50585e-05
1.6706e-05
1.3555e-05
1.6744e-05
2.62068e-06
1.66077e-05
1.10007e-05
1.47395e-06
3.21922e-06
1.67463e-05
1.44263e-05
5.38747e-06
1.72545e-05
1.68517e-05
1.06328e-05
3.39123e-07
9.97235e-06
1.37785e-05
1.08556e-05
1.3933e-05
1.67623e-05
1.65358e-05
1.21829e-06
1.64919e-05
1.67205e-05
1.90946e-06
1.67468e-05
4.38465e-06
3.84544e-08
1.67419e-05
1.68842e-05
3.71421e-09
8.18486e-06
1.67921e-05
1.60027e-05
3.36668e-06
7.39844e-06
1.12334e-05
7.63062e-06
1.38047e-05
1.67632e-05
9.69026e-06
1.28712e-05
8.48238e-07
1.48387e-05
2.29185e-06
1.67395e-05
4.79008e-06
1.02787e-05
1.69611e-05
1.57225e-05
8.84e-06
2.80725e-06
1.6767e-05
1.67891e-05
1.55807e-05
1.58252e-05
1.63707e-05
1.17662e-05
1.14587e-05
5.31492e-06
1.67371e-05
1.64728e-05
1.77575e-06
1.13432e-05
1.67905e-05
9.29391e-06
1.36787e-05
1.63227e-05
1.65221e-05
1.67352e-05
1.49924e-05
1.67691e-05
1.67684e-05
1.72729e-05
1.67094e-05
5.57616e-06
5.94107e-06
1.67767e-05
1.28294e-05
1.64985e-05
1.60396e-05
1.6733e-05
1.22879e-05
1.416e-05
1.67874e-05
1.66812e-05
1.10184e-05
1.16696e-05
1.6498e-05
1.37315e-05
1.65111e-05
1.87097e-06
7.5387e-06
1.1219e-06
4.16868e-06
1.36576e-05
1.63327e-05
1.67296e-05
1.09294e-05
1.64122e-05
4.77057e-06
1.64631e-05
9.46276e-06
1.6689e-05
1.61559e-06
3.57578e-06
1.67734e-05
1.09296e-05
1.3167e-05
1.0864e-05
1.65142e-05
1.42221e-05
1.67625e-05
3.94535e-06
1.66567e-05
2.27266e-06
1.1188e-05
6.22801e-06
1.63654e-05
4.45835e-06
1.66456e-05
1.65376e-05
1.40613e-06
1.6513e-05
4.42309e-06
1.65287e-05
1.66728e-05
1.65042e-05
2.20958e-06
1.66607e-05
1.63182e-05
1.67427e-05
1.56203e-05
1.67037e-05
1.53532e-05
8.47867e-06
4.51541e-06
7.12846e-06
1.67685e-05
1.63083e-05
1.67466e-05
1.40555e-06
1.21128e-05
7.36524e-06
1.2977e-05
1.64354e-05
1.62523e-05
1.67658e-05
8.26551e-06
3.56899e-06
1.64601e-05
1.65894e-05
1.75826e-06
1.3122e-05
5.16748e-06
1.5478e-06
1.61055e-05
1.67269e-05
1.69918e-05
1.56575e-05
1.43966e-05
7.97541e-06
1.6252e-05
1.64343e-05
1.61998e-05
1.67468e-05
1.64291e-05
2.58311e-06
4.28091e-06
1.23193e-05
1.26972e-05
1.67432e-05
2.53447e-06
4.37167e-06
5.35358e-06
1.50743e-05
8.0768e-06
1.6775e-05
1.63252e-05
1.6645e-05
1.70176e-05
1.67582e-05
6.34146e-06
3.15326e-07
1.67591e-05
1.58737e-05
1.44073e-05
9.81469e-07
1.63604e-05
1.45896e-05
3.00906e-06
1.67721e-05
5.15424e-06
1.6503e-05
1.66642e-05
1.6236e-05
1.25648e-05
1.65871e-05
1.16516e-05
6.21277e-06
2.87834e-06
1.43113e-05
1.34207e-05
1.31431e-06
1.72869e-05
3.05126e-06
1.60782e-05
1.01148e-05
1.67465e-05
1.23005e-05
1.32918e-05
1.67366e-05
1.67389e-05
4.14126e-06
1.11153e-05
1.67551e-05
1.68314e-05
1.4785e-05
1.6305e-05
1.66119e-05
1.6741e-05
2.83968e-06
1.67612e-05
2.11688e-06
1.58345e-05
9.9068e-06
1.63968e-05
1.67754e-05
8.46423e-06
1.63023e-05
1.35194e-05
2.3716e-06
1.24988e-05
1.11889e-05
5.91382e-09
1.61076e-05
1.30376e-05
1.2812e-05
-1.05089e-07
2.16506e-07
1.59429e-05
5.37629e-06
1.0766e-05
1.62896e-05
1.11828e-05
1.75113e-05
1.07715e-05
1.71008e-05
1.38691e-05
1.67823e-05
1.33111e-05
1.67729e-05
1.0127e-05
1.27446e-05
1.48873e-05
1.64812e-05
1.18444e-05
1.29319e-05
1.59368e-05
1.56251e-05
1.64958e-05
1.67702e-05
1.63126e-05
1.12428e-05
3.7406e-06
1.67034e-05
7.90746e-06
1.6746e-05
7.51827e-06
1.24857e-05
1.29949e-05
1.60867e-05
5.97102e-06
1.67508e-05
1.27845e-05
1.33739e-05
1.67758e-05
1.63729e-05
1.70362e-05
1.60557e-05
1.32453e-05
1.67646e-05
1.67724e-05
9.21264e-06
1.67802e-05
1.35181e-05
4.22183e-06
2.68133e-07
2.53374e-07
7.29303e-07
1.60007e-05
2.7611e-08
8.92899e-08
1.06237e-05
1.71874e-05
6.19142e-06
1.30573e-05
1.67387e-05
1.67732e-05
1.67723e-05
1.09308e-05
1.6773e-05
1.54771e-05
1.67791e-05
1.67949e-05
1.25325e-05
1.67333e-05
1.6656e-05
6.72657e-06
1.67619e-05
1.67542e-05
1.70135e-05
3.10705e-06
1.28453e-07
1.33008e-06
1.53356e-05
5.96444e-06
4.57576e-06
7.65317e-06
5.03731e-06
1.6452e-05
3.96612e-07
1.67448e-05
1.2572e-05
1.38855e-05
1.16487e-05
1.69533e-05
5.67664e-06
1.68612e-05
1.7032e-05
1.22794e-05
4.33986e-06
1.69803e-05
1.67596e-05
1.6753e-05
1.68329e-05
1.49547e-05
1.41654e-05
1.66852e-05
1.87037e-06
1.63658e-05
1.06548e-05
7.14487e-06
1.6683e-05
1.35006e-05
7.38543e-06
1.31668e-05
1.21927e-05
1.66172e-05
1.05865e-05
1.33037e-05
1.66549e-05
1.66239e-05
7.88555e-06
2.77678e-06
4.84674e-07
1.63963e-05
1.02874e-05
1.68119e-06
1.67936e-05
1.62561e-05
1.65583e-05
1.61436e-05
1.09228e-06
1.20243e-05
1.63108e-05
1.66487e-05
1.65921e-05
1.677e-05
4.27413e-06
1.67629e-05
6.48141e-06
1.64251e-05
1.67316e-05
1.53997e-05
1.6603e-05
7.6427e-06
1.67478e-05
1.66247e-05
1.83265e-06
4.10339e-06
4.92022e-06
4.14477e-06
1.71719e-05
1.67336e-05
1.61633e-05
3.69243e-06
1.65116e-05
1.67646e-05
1.67296e-05
1.71173e-05
1.86436e-06
1.17669e-05
1.35466e-05
1.14432e-05
1.69247e-05
1.37622e-05
3.33464e-06
3.31366e-06
7.58e-06
1.62436e-05
4.13624e-06
1.71046e-05
1.64385e-05
5.04954e-06
1.69844e-05
1.40717e-05
1.66583e-05
1.64671e-05
1.51081e-05
1.70163e-05
1.71327e-05
1.67611e-05
1.65262e-05
7.78487e-06
1.68181e-05
1.35537e-05
1.30621e-05
1.94806e-06
1.67426e-05
1.4554e-05
3.2933e-06
8.84222e-07
7.54162e-07
1.63506e-05
1.67496e-05
1.6283e-05
1.7416e-05
2.64593e-06
1.38329e-06
1.15149e-05
1.05623e-06
1.08835e-05
3.08729e-06
1.62149e-05
1.5723e-05
1.57322e-05
1.67317e-05
1.61848e-06
8.49828e-07
1.12606e-05
1.12181e-05
1.49867e-05
1.67824e-05
1.59948e-05
1.2976e-05
1.63026e-05
2.52696e-06
2.65768e-06
1.64239e-05
1.6794e-05
1.22364e-05
1.68238e-05
1.17398e-06
1.68131e-05
1.40267e-05
1.7042e-05
1.67503e-05
1.67979e-05
1.67564e-05
1.96207e-06
3.60679e-07
1.67624e-05
1.61576e-05
1.65736e-06
1.6671e-05
4.82083e-06
1.65529e-05
1.16867e-06
1.61013e-05
1.67658e-05
1.36329e-05
1.67735e-05
1.6776e-05
1.63975e-05
3.56241e-06
4.06981e-06
1.39093e-06
1.54746e-05
1.01052e-05
1.66658e-05
1.52138e-05
1.63057e-05
1.4911e-05
1.72721e-05
3.89163e-06
1.67565e-05
1.67368e-05
1.05284e-06
1.67564e-05
1.67784e-05
1.24313e-05
1.09827e-05
1.67958e-05
1.92524e-06
1.38016e-05
2.5825e-06
1.55812e-05
1.61721e-05
1.14731e-05
1.62403e-05
1.67802e-05
1.29128e-05
1.67285e-05
8.75211e-06
3.7458e-06
1.68106e-05
1.15315e-05
1.2382e-05
3.32417e-07
2.98037e-07
1.46804e-05
1.65145e-05
8.95673e-06
6.22757e-06
1.67647e-05
1.67137e-05
1.67782e-05
1.6719e-05
8.91834e-07
1.65721e-05
1.69883e-05
9.12667e-06
1.67403e-05
1.68113e-05
1.58966e-05
1.07449e-05
1.60148e-05
1.85459e-06
1.33408e-05
1.67591e-05
1.67809e-05
1.03775e-05
1.7281e-05
8.62633e-07
4.37289e-06
3.98432e-06
1.43016e-05
1.42843e-05
1.77935e-05
1.01123e-05
1.62891e-05
6.74978e-06
1.67627e-05
1.63596e-05
1.05018e-05
1.67266e-05
1.67804e-05
1.67811e-05
3.01893e-06
9.18117e-06
1.67758e-05
1.5725e-05
1.49445e-05
1.09692e-05
1.5614e-05
1.48889e-05
1.24076e-06
1.67527e-05
1.67989e-05
2.46833e-06
1.67601e-06
3.8024e-06
1.04182e-06
1.02543e-05
3.50505e-06
1.67807e-05
1.68601e-05
1.14989e-05
1.67969e-05
1.64085e-05
1.70965e-05
1.44517e-05
1.65701e-05
1.55363e-06
1.67276e-05
1.06138e-06
1.67751e-05
1.67232e-05
2.87102e-06
1.30692e-06
1.57645e-05
1.2819e-05
1.72091e-05
1.67801e-05
1.68956e-05
3.60522e-07
2.10615e-07
3.32786e-06
1.40856e-05
1.71013e-05
1.70524e-05
1.58427e-05
1.71371e-05
1.67944e-05
1.00206e-05
1.65648e-06
1.66369e-05
1.30742e-05
1.67799e-05
1.32365e-06
5.87905e-06
1.64891e-05
1.46027e-05
1.58278e-05
1.66694e-05
1.45718e-05
1.63789e-05
1.65146e-05
3.86484e-06
1.65242e-05
1.67185e-05
1.63169e-05
2.68514e-06
1.67792e-05
1.61986e-05
1.69506e-05
1.67744e-05
1.40247e-05
1.20878e-06
1.37123e-05
1.41434e-05
1.71491e-05
1.49467e-05
1.6705e-05
1.65573e-05
1.67542e-05
1.67926e-05
1.29694e-06
1.93439e-06
1.67785e-05
1.00257e-06
1.29772e-06
1.6933e-05
1.6036e-05
1.57453e-05
1.41426e-05
1.69975e-05
1.59406e-05
5.22126e-06
1.68285e-05
1.6738e-05
1.67526e-05
1.28549e-05
1.68875e-05
1.6775e-05
1.67452e-05
1.79945e-05
1.62837e-05
6.78698e-09
1.59599e-05
3.53415e-06
1.47581e-05
1.67494e-05
3.01272e-06
1.72662e-05
1.60173e-05
2.05956e-06
1.70254e-05
1.64321e-05
4.28835e-06
1.67609e-05
-5.93323e-09
4.18184e-06
1.50276e-05
1.64204e-05
1.72364e-05
1.67795e-05
1.40553e-05
1.66406e-05
1.99087e-06
1.26745e-05
1.00078e-05
1.67117e-05
1.67771e-05
1.61138e-05
1.65769e-05
1.66747e-05
1.28152e-05
1.26733e-05
1.67789e-05
1.06494e-05
1.67551e-05
1.56807e-06
1.55102e-05
1.63816e-05
1.43613e-05
2.94589e-06
1.64607e-06
8.77674e-06
1.51163e-05
1.60535e-05
1.26609e-05
1.74105e-06
1.62491e-05
2.23691e-06
1.32671e-06
3.05039e-06
1.6748e-05
1.61103e-05
1.67737e-05
1.68462e-05
1.67412e-05
1.48125e-05
4.58966e-06
1.67513e-05
1.3219e-05
1.81289e-06
1.60665e-05
1.31872e-05
9.51789e-06
1.67562e-05
1.47898e-05
1.47437e-05
1.72406e-05
1.65784e-05
1.68161e-05
1.6691e-05
1.68035e-05
1.49041e-05
1.64598e-05
1.65681e-05
1.38975e-05
1.67364e-05
1.50258e-05
1.67801e-05
1.69324e-05
1.24265e-05
1.54699e-05
1.65692e-05
1.55767e-05
1.67675e-05
1.67849e-05
3.43927e-06
9.4276e-06
1.20702e-06
2.79364e-06
2.48134e-06
1.41152e-05
1.71404e-05
1.67664e-05
1.63082e-05
1.66202e-05
1.65964e-05
1.6081e-05
1.57217e-05
1.67412e-05
3.10633e-06
1.65674e-05
1.44232e-05
1.41638e-05
3.4097e-06
1.676e-05
1.61098e-05
1.55134e-05
1.67601e-05
1.72035e-05
1.67486e-05
5.43176e-06
1.48544e-05
1.657e-05
1.67659e-05
1.67685e-05
1.67764e-05
1.65254e-05
1.60108e-07
1.60345e-05
1.19184e-05
4.32148e-06
7.01295e-06
1.67923e-05
1.35599e-05
1.67446e-05
1.68629e-05
1.61983e-05
1.66012e-05
3.447e-06
1.58494e-05
1.45004e-05
6.40628e-07
1.40039e-05
1.70238e-05
2.81764e-06
1.61546e-05
1.61122e-05
4.40968e-07
9.73341e-06
3.68202e-06
2.72494e-06
1.60498e-05
1.67949e-05
3.45046e-06
3.84768e-06
1.35863e-05
1.63849e-05
1.58519e-05
1.67783e-05
1.59377e-05
1.67429e-05
1.17113e-05
3.91712e-06
1.13687e-06
3.56766e-06
1.67745e-05
1.54443e-05
1.57549e-05
1.68171e-05
1.49692e-05
1.6782e-05
8.70397e-06
1.61123e-05
1.644e-05
1.72923e-05
1.65032e-05
1.66937e-05
1.6747e-05
1.62676e-06
1.70813e-05
1.59211e-05
1.48836e-05
3.26097e-06
1.68301e-05
1.66109e-05
1.65129e-05
1.64524e-05
9.36159e-07
1.55268e-05
9.56532e-06
1.7204e-05
9.63506e-06
6.74239e-06
1.20635e-06
1.51994e-05
2.96816e-06
6.7246e-06
4.46006e-06
1.67464e-05
1.68202e-05
8.606e-07
1.64964e-05
1.67559e-05
1.66983e-05
1.67419e-05
1.4865e-06
3.46224e-06
1.66123e-05
1.52472e-05
1.4805e-06
1.67343e-05
1.74828e-05
1.63748e-06
1.61727e-05
1.59499e-05
1.51631e-05
1.62299e-05
1.67908e-05
1.57059e-05
1.07831e-05
1.67691e-05
1.63128e-05
1.34038e-06
1.67123e-05
1.57396e-05
1.58562e-05
1.39428e-05
5.43304e-06
1.65637e-05
1.73382e-05
4.85798e-06
7.83984e-06
1.67803e-05
1.61658e-05
1.23155e-05
1.61014e-05
1.62556e-05
1.67884e-05
1.65145e-05
1.67796e-05
1.67421e-05
1.67444e-05
1.68631e-05
3.21142e-06
1.54541e-05
1.30631e-05
1.49165e-05
1.66912e-05
1.79039e-05
1.67601e-05
1.68023e-05
4.73074e-06
1.41203e-05
1.47758e-05
1.67773e-05
1.59093e-05
1.67835e-05
1.18258e-05
1.7691e-06
1.43333e-05
1.67364e-05
1.67143e-05
1.58108e-06
1.67675e-05
1.67177e-05
3.41372e-06
1.51535e-06
1.39757e-05
1.67556e-05
1.34358e-05
7.9508e-07
1.57731e-05
1.29224e-05
1.56453e-05
1.48761e-05
1.72311e-05
1.67041e-05
1.70637e-05
1.67566e-05
1.63164e-05
1.67452e-05
1.27694e-05
1.61552e-05
6.85967e-06
1.67647e-05
1.71984e-05
1.67192e-05
1.67489e-05
1.25831e-05
1.62538e-05
1.61115e-05
1.66729e-05
1.62602e-05
1.64167e-05
1.61459e-05
3.65398e-06
1.55915e-05
1.67351e-05
1.61423e-05
1.70822e-05
1.64898e-05
1.6294e-05
1.67697e-05
1.50382e-05
1.52837e-05
1.65992e-05
9.70468e-06
1.67677e-05
1.09385e-05
1.6533e-05
1.67926e-05
1.65546e-05
1.65795e-05
1.67445e-05
1.38126e-05
1.60206e-05
3.68616e-06
1.12124e-06
1.6156e-06
1.67017e-05
1.62716e-05
1.61035e-05
1.6308e-05
1.65096e-05
1.62395e-05
1.60434e-05
1.61536e-05
1.62744e-05
1.6477e-05
6.60246e-06
1.42699e-05
1.28977e-06
1.65537e-05
1.72923e-05
1.59457e-05
1.21676e-06
1.62553e-05
1.6227e-05
1.6499e-05
1.63963e-05
1.62153e-05
1.60824e-05
1.52798e-05
1.6214e-05
1.67754e-05
1.65304e-05
1.66115e-05
1.09626e-05
1.52276e-05
1.62072e-05
1.67691e-05
1.64172e-05
1.67674e-05
1.67611e-05
1.67793e-05
1.43738e-05
1.57875e-05
1.67291e-05
1.5624e-05
1.67304e-05
1.67456e-05
1.49927e-05
1.45329e-06
1.61818e-05
1.66396e-05
1.62112e-05
4.80881e-06
1.64683e-05
1.67631e-05
1.19467e-05
1.60445e-05
1.49616e-05
1.66416e-05
1.62529e-05
1.50068e-05
1.66143e-05
1.67537e-05
1.62815e-05
1.67288e-05
1.59573e-05
1.53907e-05
1.22105e-05
1.6416e-05
1.51004e-05
1.60275e-06
1.64241e-05
1.67321e-05
1.24082e-05
1.63799e-05
1.43628e-06
1.66965e-05
1.67738e-05
1.69262e-05
1.64043e-05
3.89244e-06
1.67457e-05
1.67333e-05
1.65734e-05
1.51396e-05
1.67339e-05
1.62234e-05
1.42172e-05
1.15626e-05
1.64391e-05
1.67245e-05
1.68293e-05
1.6077e-05
1.01313e-05
4.59666e-06
1.67352e-05
3.60349e-06
1.67068e-05
1.60743e-05
1.58129e-05
1.67683e-05
1.47863e-06
1.67827e-05
1.93549e-06
1.67637e-05
1.67792e-05
1.64063e-05
1.67644e-05
1.11328e-05
1.67866e-05
2.00235e-06
1.61932e-05
1.38821e-05
4.0236e-06
1.6695e-05
9.09945e-07
1.67992e-05
1.67484e-05
1.6023e-05
1.63641e-05
1.40481e-05
1.67256e-05
1.61891e-05
3.89257e-06
1.55665e-05
1.37288e-05
1.41461e-05
1.36512e-06
1.6139e-05
1.5006e-05
1.66221e-05
1.66774e-05
1.61933e-05
1.67362e-05
1.68857e-05
1.50253e-05
5.05268e-06
1.5781e-05
3.45883e-06
1.39765e-05
1.3211e-05
1.67092e-05
1.59635e-05
1.50589e-05
1.4601e-05
1.68189e-05
1.67391e-05
1.62831e-05
1.71617e-05
1.62011e-05
1.6714e-05
1.45106e-05
1.60227e-05
1.67309e-05
1.62955e-05
1.53528e-05
9.84178e-06
1.67629e-05
1.63671e-05
1.63072e-05
1.70305e-05
1.63489e-05
1.65257e-05
1.49141e-06
1.50807e-05
1.42514e-05
4.46253e-06
1.63395e-05
1.63072e-05
1.69379e-05
1.65089e-05
1.04114e-05
1.64061e-05
1.49677e-05
1.6638e-05
1.63452e-05
1.67669e-05
1.68232e-06
1.67363e-05
1.63485e-05
1.38982e-05
1.64891e-05
1.61698e-05
1.58422e-05
1.68007e-05
1.66961e-05
1.54977e-05
1.64749e-05
1.63065e-05
1.6749e-05
2.76717e-06
1.64105e-05
1.3772e-05
1.65147e-05
1.6769e-05
4.35711e-06
1.67228e-05
1.67489e-05
1.63335e-05
1.69098e-05
1.67538e-05
1.28336e-05
1.18632e-05
2.18831e-06
3.72865e-06
1.67459e-05
1.64171e-05
1.50968e-05
1.65149e-05
1.67509e-05
1.65212e-05
1.64538e-05
1.6965e-05
1.61417e-05
1.67727e-05
1.67811e-05
1.6225e-05
1.58773e-05
1.4457e-05
1.63652e-05
1.67787e-05
1.67849e-05
7.13964e-06
1.45137e-05
1.68012e-05
3.77385e-06
1.63073e-05
1.61445e-05
1.3298e-05
1.67679e-05
5.91108e-06
1.61848e-05
1.48812e-05
1.48384e-05
1.30325e-05
1.67577e-05
1.65966e-05
1.64012e-05
1.15358e-06
5.61321e-06
3.80631e-06
1.62699e-05
1.61821e-05
1.67093e-05
2.04935e-06
6.50308e-06
1.73588e-05
1.63999e-05
1.6483e-05
1.63929e-05
1.68554e-05
1.64231e-05
1.62809e-05
3.91943e-06
1.6871e-05
1.54362e-05
1.68046e-05
1.651e-05
1.68323e-05
1.67655e-05
2.93632e-06
1.66132e-05
1.67219e-05
1.67534e-05
1.67557e-05
1.422e-05
1.61293e-05
1.65886e-05
1.5794e-06
1.6776e-05
1.65514e-05
1.84374e-06
1.42066e-05
1.6283e-05
1.64196e-05
1.64073e-05
1.63463e-05
1.62006e-05
1.64869e-05
1.64328e-05
1.64283e-05
1.63671e-05
1.5184e-05
1.60871e-05
1.65123e-05
1.67696e-05
1.46162e-05
1.61184e-05
1.68509e-05
1.67953e-05
1.62877e-05
1.67404e-05
9.8352e-06
1.63636e-05
1.67012e-05
1.64464e-05
1.6289e-05
1.71673e-06
1.63821e-05
1.63872e-05
1.39518e-05
1.48531e-05
1.67969e-05
1.35542e-05
1.52374e-05
1.67411e-05
7.53384e-06
1.60184e-05
1.66927e-05
1.68567e-05
1.63043e-05
1.63558e-05
1.6742e-05
1.55216e-05
1.67614e-05
1.67382e-05
1.67464e-05
1.67397e-05
1.49231e-05
1.63025e-05
1.67828e-05
2.43727e-06
1.67195e-05
1.67485e-05
1.69005e-05
1.63668e-05
1.53307e-05
1.67791e-05
1.48897e-05
1.65492e-05
7.85207e-06
1.70853e-05
1.56094e-05
1.53413e-05
1.67475e-05
1.44581e-05
1.4169e-05
1.64418e-05
1.43963e-05
1.64394e-05
1.79533e-05
1.67366e-06
1.67759e-05
1.64746e-05
1.45027e-05
1.64356e-05
1.63984e-05
1.69406e-05
1.55811e-05
1.61865e-05
1.63979e-05
1.48566e-05
1.5807e-05
1.63947e-05
1.64138e-05
1.72987e-05
1.63484e-05
1.59985e-05
1.66048e-05
1.66361e-05
1.72337e-05
1.54209e-05
1.6365e-05
1.64131e-05
1.71382e-05
1.60604e-05
1.4404e-05
1.51592e-05
1.66088e-05
1.65584e-05
1.7543e-05
1.55787e-05
1.35466e-05
1.66262e-05
2.75907e-06
1.68384e-05
1.64203e-05
1.36618e-05
1.61921e-05
1.61873e-05
1.6767e-05
1.49759e-05
1.64066e-05
1.65398e-05
1.48471e-06
1.65306e-05
1.65748e-05
1.62533e-05
1.61298e-06
1.67189e-05
1.68125e-05
1.62223e-05
1.64794e-05
1.6627e-05
1.67686e-05
1.67633e-05
1.66889e-05
1.64805e-05
1.49813e-05
1.67688e-05
1.68893e-05
1.67907e-05
1.67762e-05
1.64022e-05
1.65015e-05
1.68156e-05
1.51786e-05
1.64941e-05
1.64996e-05
1.36464e-05
1.66369e-05
1.64098e-05
1.671e-05
1.70944e-05
1.51202e-05
1.34465e-06
1.61261e-05
1.66028e-05
1.48451e-05
1.6168e-05
1.58315e-05
1.6692e-06
1.59909e-05
1.79279e-05
1.38427e-05
1.66441e-05
1.61498e-05
1.63085e-05
1.62064e-05
1.65289e-05
1.13814e-05
1.64781e-05
1.66457e-05
1.67222e-05
1.71793e-05
1.64771e-05
1.67578e-05
1.43824e-05
1.61833e-05
1.64727e-05
1.65285e-05
1.65796e-05
1.52167e-05
1.60487e-05
1.63069e-05
1.68361e-05
1.64557e-05
1.673e-05
1.65078e-05
1.53344e-05
1.29606e-06
1.64727e-05
1.67467e-05
1.6544e-05
1.64578e-05
1.65607e-05
1.67663e-05
1.6622e-05
1.65724e-05
1.45909e-05
1.67699e-05
1.61612e-05
1.61629e-05
1.62332e-05
1.65215e-05
1.67668e-05
1.6633e-05
1.67439e-05
1.65833e-05
2.59503e-06
1.67398e-05
1.64073e-05
1.67405e-05
1.6399e-05
1.61061e-05
1.66e-05
1.66973e-05
1.60689e-05
1.55376e-05
1.79289e-05
1.67349e-05
1.18604e-05
1.48769e-05
1.71397e-05
4.12811e-06
1.68424e-05
1.67842e-05
1.67647e-05
1.6274e-05
1.67414e-05
1.61152e-05
1.49023e-05
1.60133e-05
1.6322e-05
1.65043e-05
1.67105e-05
1.62171e-05
1.67526e-05
1.73774e-05
1.60298e-05
8.48336e-06
1.67048e-05
1.68735e-05
1.61381e-05
1.67811e-05
1.64537e-05
1.63482e-05
1.67466e-05
1.62799e-05
1.69011e-05
1.67576e-05
1.64405e-05
1.64212e-05
1.67502e-05
1.67782e-05
1.67781e-05
1.61755e-05
1.63481e-05
1.67877e-05
1.68737e-05
1.67804e-05
1.64545e-05
1.63985e-05
1.37231e-05
1.76645e-06
2.68422e-06
1.67607e-05
1.50426e-05
1.67778e-05
1.67682e-05
1.67462e-05
5.6475e-06
1.62609e-05
1.6549e-05
1.66347e-05
1.71768e-05
1.67505e-05
1.67866e-05
1.67218e-05
1.67847e-05
1.6756e-05
1.63113e-05
1.31758e-05
1.80927e-05
1.62753e-05
1.6609e-05
1.67911e-05
1.49055e-05
1.69317e-05
1.64033e-05
1.67007e-05
1.67434e-05
1.4806e-05
1.68642e-05
1.66947e-05
1.62428e-05
1.70582e-05
1.33109e-05
1.66421e-05
1.47971e-05
1.65149e-05
1.65836e-05
1.67203e-05
1.67507e-05
1.65334e-05
1.63781e-05
1.64754e-05
1.35075e-05
1.67536e-05
4.60186e-07
3.50283e-06
1.65508e-05
1.68944e-05
1.73034e-05
1.66022e-05
1.71698e-05
1.72867e-06
1.6949e-05
1.65211e-05
4.62521e-06
6.22147e-06
7.11939e-06
7.50526e-06
8.65098e-06
1.02475e-05
1.06135e-05
1.1483e-05
1.1882e-05
1.62603e-05
1.62389e-05
1.61894e-05
1.711e-05
1.71005e-05
1.67581e-05
1.68197e-05
1.6683e-05
1.6866e-05
1.67335e-05
1.67573e-05
1.68061e-05
1.51849e-05
1.61563e-05
1.30601e-05
1.68268e-05
1.67591e-05
1.67743e-05
1.67699e-05
1.31873e-05
1.6787e-05
1.14923e-05
1.66738e-05
1.68667e-05
1.34311e-05
1.35479e-05
2.06071e-06
1.67764e-05
1.66215e-05
1.66971e-05
1.69607e-05
1.69292e-05
1.68305e-05
1.63888e-05
1.67771e-05
1.81762e-06
1.66794e-05
1.69346e-05
1.67381e-05
1.67503e-05
1.35379e-05
1.59066e-05
1.67406e-05
1.63124e-05
1.72794e-05
1.62126e-05
1.64846e-05
1.62108e-05
3.3141e-07
1.51158e-05
1.6554e-05
1.65031e-05
1.52205e-05
1.66212e-05
1.6845e-05
1.62208e-05
1.37324e-05
1.71503e-05
1.67026e-05
1.65708e-05
1.29596e-05
1.63227e-05
1.67013e-05
1.67171e-05
1.67512e-05
1.52875e-05
1.70886e-05
1.65267e-05
1.68712e-05
1.68266e-05
1.46189e-05
1.65957e-05
1.65346e-05
1.65044e-05
1.73446e-05
1.63465e-05
1.6586e-05
1.70045e-05
1.67911e-05
1.66134e-05
1.68988e-05
1.69431e-05
1.67773e-05
1.67747e-05
1.67465e-05
1.64305e-05
1.66981e-05
1.16194e-05
1.64944e-05
1.64605e-05
1.3166e-05
1.67459e-05
1.40515e-05
1.67851e-05
1.63286e-05
1.68928e-05
1.29182e-05
1.60457e-05
1.6906e-05
1.67513e-05
1.72729e-05
1.34256e-05
1.64308e-05
1.67255e-05
1.46892e-05
1.64501e-05
4.63636e-06
1.67264e-05
1.63944e-05
1.65414e-05
1.67635e-05
1.6763e-05
1.68175e-05
1.70149e-05
1.56594e-05
1.65525e-05
1.66944e-05
1.61026e-05
1.08734e-06
1.69789e-05
1.67384e-05
1.67122e-05
6.14493e-07
1.66709e-05
1.64638e-05
6.36999e-06
1.68003e-05
1.68071e-05
1.68263e-05
1.46656e-05
1.5029e-05
1.67278e-05
1.70837e-05
1.59497e-05
1.63621e-05
1.66562e-05
1.67548e-05
1.66581e-05
1.67016e-05
1.61813e-05
1.74344e-05
1.64112e-05
3.62551e-06
1.66426e-05
1.67234e-05
1.66458e-05
1.6956e-05
1.67725e-05
1.66984e-05
1.67853e-05
1.68425e-05
1.61601e-05
1.67817e-05
1.47432e-05
1.66723e-05
1.72644e-05
1.64291e-05
1.67027e-05
1.67853e-05
1.47408e-05
1.65257e-05
1.65615e-05
1.6267e-05
1.67625e-05
1.6762e-05
1.62369e-05
1.67926e-05
1.69463e-05
1.71491e-05
1.70068e-05
1.62582e-05
1.71767e-05
1.6675e-05
1.6965e-05
1.62524e-05
1.64295e-05
1.67406e-05
1.67438e-05
1.66649e-05
1.65654e-05
1.70005e-05
1.4866e-05
1.72407e-05
1.67698e-05
1.527e-05
1.65062e-05
1.74691e-05
1.68284e-05
1.72318e-05
1.71426e-05
1.64663e-05
1.65699e-05
1.62558e-05
1.67404e-05
1.65433e-05
1.67625e-05
1.72475e-05
1.6913e-05
1.79115e-05
1.56671e-05
1.26461e-05
1.65507e-05
1.96834e-06
1.63028e-05
1.52917e-05
1.63318e-05
1.71897e-05
1.72908e-05
1.63713e-05
2.92923e-06
1.67146e-05
1.62921e-05
1.66902e-05
1.67392e-05
8.4575e-06
1.60914e-05
2.54725e-06
1.67244e-05
1.67676e-05
1.68404e-05
1.45131e-05
1.69385e-05
1.79328e-05
1.81253e-06
1.33982e-05
1.71638e-05
1.72342e-05
1.72761e-05
1.5077e-05
1.67505e-05
1.36632e-05
1.36951e-05
1.49831e-05
1.675e-05
1.66481e-05
1.67894e-05
1.79444e-05
1.67882e-05
1.71338e-05
1.67597e-05
1.31571e-05
1.6682e-05
1.78954e-05
1.67093e-05
1.6477e-05
2.34282e-06
1.67642e-05
1.6672e-05
1.67426e-05
1.51551e-05
1.2493e-05