/*--------------------------------*- C++ -*----------------------------------*\
  =========                 |
  \\      /  F ield         | OpenFOAM: The Open Source CFD Toolbox
   \\    /   O peration     | Website:  https://openfoam.org
    \\  /    A nd           | Version:  8
     \\/     M anipulation  |
\*---------------------------------------------------------------------------*/
FoamFile
{
    version     2.0;
    format      ascii;
    class       surfaceScalarField;
    location    "0.6";
    object      phi;
}
// * * * * * * * * * * * * * * * * * * * * * * * * * * * * * * * * * * * * * //

dimensions      [0 3 -1 0 0 0 0];

internalField   nonuniform List<scalar> 
8224
(
3.95268e-10
3.75861e-10
-5.82031e-10
-1.89097e-10
3.24901e-11
3.93213e-09
-2.09498e-10
-3.75512e-09
-4.35323e-10
-1.58727e-10
-1.93986e-10
7.88035e-10
-7.52005e-09
2.81376e-09
-2.51017e-09
7.21645e-09
4.02922e-09
-4.923e-11
1.69637e-10
-4.14963e-09
4.17142e-09
-2.72563e-10
1.65315e-10
-4.06417e-09
-4.01936e-09
-4.62452e-10
-1.45725e-10
4.62753e-09
-4.47975e-09
5.04913e-10
-1.10549e-10
4.08539e-09
3.79692e-09
-4.0469e-09
2.49973e-10
-2.76845e-09
-2.98375e-09
5.42597e-09
3.26222e-10
-6.90282e-10
-1.73612e-13
6.88793e-10
1.66235e-12
-6.40597e-10
-3.58187e-09
4.91606e-09
-6.93596e-10
-9.76309e-10
-1.60274e-10
1.9523e-09
-8.15721e-10
1.86345e-09
-8.80151e-10
-8.49539e-09
7.51209e-09
4.4429e-09
-4.1275e-09
-3.15391e-10
-4.5964e-09
4.61563e-09
2.44423e-11
-4.36726e-11
-4.10657e-09
5.16669e-10
1.07817e-10
3.48208e-09
5.2743e-09
-4.34599e-09
4.56291e-09
-5.49122e-09
2.42369e-09
-2.13253e-09
-4.03365e-09
3.74249e-09
-4.61064e-09
2.03024e-10
-7.21379e-11
-5.17573e-10
4.57625e-10
-4.91059e-10
5.51007e-10
-4.7548e-09
4.66933e-09
8.72177e-10
-7.86699e-10
-1.46373e-09
2.74525e-10
1.45472e-09
-2.65519e-10
-5.49691e-09
2.3967e-10
-8.18748e-11
5.33912e-09
4.71658e-09
-4.63738e-09
-8.83603e-10
8.04405e-10
-3.67765e-09
4.11921e-10
-1.64103e-10
3.42984e-09
-4.6203e-09
-6.16701e-10
4.82198e-10
-4.09817e-09
-1.58202e-10
6.86104e-11
4.18776e-09
1.51606e-10
3.98404e-09
-4.93601e-10
-3.64205e-09
2.71887e-09
-7.77514e-10
-5.91773e-09
3.97638e-09
-3.70902e-11
4.69589e-11
-5.06335e-09
7.57059e-09
-6.17873e-10
-1.88936e-09
3.79856e-09
8.23687e-11
-2.09105e-10
-3.67182e-09
1.67755e-11
2.90041e-09
-3.4081e-09
4.90914e-10
2.46538e-10
4.48229e-10
-6.65285e-09
5.95808e-09
4.35058e-09
4.83392e-11
-3.21878e-11
-4.36673e-09
1.03607e-11
-2.19539e-10
-5.37476e-09
5.58393e-09
4.42055e-09
-1.04554e-10
1.65796e-10
-4.4818e-09
5.0401e-09
7.48956e-11
-5.84623e-09
7.31228e-10
-4.16786e-09
4.27351e-09
-2.11672e-10
1.06024e-10
-7.44985e-09
-4.09475e-09
6.66863e-09
4.87597e-09
4.61117e-09
3.45705e-10
-4.58296e-09
-3.73921e-10
-4.97915e-10
-5.21688e-09
4.42209e-09
1.2927e-09
3.88046e-09
-4.03446e-09
8.40111e-11
6.99833e-11
3.8458e-09
-4.25215e-09
-9.69761e-10
1.37612e-09
-3.92558e-09
3.91253e-09
8.90991e-11
-7.6047e-11
4.55105e-09
6.23553e-09
-5.24306e-09
-5.54352e-09
4.60634e-09
-4.56024e-09
-1.46305e-10
1.00206e-10
-4.17217e-09
5.11577e-09
2.94173e-10
-1.23778e-09
-1.03039e-08
-1.1814e-09
4.074e-09
7.41129e-09
5.67754e-09
-5.86875e-09
1.91208e-10
-4.55284e-09
-8.33684e-11
3.98015e-11
3.95642e-09
-3.83875e-09
1.1918e-10
-2.36849e-10
-3.938e-09
-8.45877e-09
2.42439e-09
9.97237e-09
-1.07545e-08
7.6716e-09
3.49299e-09
-4.10064e-10
1.72041e-11
-1.22094e-11
5.84749e-09
-7.27693e-09
1.42944e-09
5.47277e-11
-5.2266e-09
-2.22665e-10
5.39454e-09
-3.91285e-09
2.90953e-10
-1.30752e-10
3.75265e-09
4.63861e-09
4.24968e-11
-7.47648e-11
4.17757e-09
-4.07444e-09
1.07422e-10
-2.10559e-10
-4.39757e-09
4.38579e-09
-8.91482e-11
1.00934e-10
-4.56337e-09
2.33593e-10
5.2242e-10
3.80736e-09
-2.35508e-11
-3.29752e-11
4.22795e-09
-3.13073e-11
-2.95136e-10
-3.77173e-09
-5.31378e-10
4.83318e-09
1.68322e-09
-5.98502e-09
-4.74862e-09
4.33729e-09
4.80959e-09
-4.39827e-09
-5.65355e-09
7.82996e-09
2.74598e-09
-4.92239e-09
-4.21548e-09
4.22016e-09
-6.84939e-12
2.16202e-12
-4.59682e-09
4.54436e-09
-9.36285e-11
1.46086e-10
3.6359e-09
-1.01083e-11
9.49295e-12
-3.63528e-09
-5.65372e-10
-4.04251e-09
7.25243e-10
3.88264e-09
5.73464e-09
-3.14416e-10
1.47677e-10
-5.5679e-09
3.06492e-13
5.19064e-09
-2.05314e-12
-5.18889e-09
-9.48483e-09
6.66458e-09
-7.44966e-09
1.02699e-08
-2.49802e-09
2.68873e-09
-6.37041e-09
6.1797e-09
-2.41788e-10
-4.63722e-09
4.87901e-09
4.18735e-09
-6.58353e-10
-3.70097e-09
1.7197e-10
4.50891e-09
-4.43839e-09
8.31067e-12
-7.88325e-11
5.14624e-09
-5.01094e-09
1.88327e-10
-3.23619e-10
3.81021e-09
-3.46058e-09
-3.11807e-09
6.32243e-10
4.60391e-09
-4.65518e-09
-5.80972e-10
-3.13799e-09
5.03974e-09
3.51149e-09
-5.41324e-09
-4.0732e-09
-9.00505e-11
4.11971e-09
4.35477e-11
-4.02086e-09
4.09853e-09
-1.83495e-10
1.05821e-10
-8.85124e-09
4.51193e-10
2.26337e-09
6.13669e-09
-4.71191e-09
-1.0393e-09
5.11061e-09
3.60572e-09
8.49702e-12
-3.5195e-09
-9.47126e-11
-4.55883e-10
5.75223e-09
-1.50113e-10
5.05583e-09
-3.37668e-09
-6.94585e-09
5.2667e-09
-2.70861e-10
4.89793e-09
-5.15845e-09
-1.74255e-09
-4.91799e-09
3.39723e-09
3.2633e-09
-4.45262e-09
4.26499e-09
4.46414e-10
-2.58789e-10
-3.61108e-09
3.52264e-09
1.16031e-10
-2.75868e-11
1.36492e-09
-1.93318e-10
3.33609e-09
-4.50768e-09
-4.29607e-09
8.2145e-10
-2.35946e-10
3.71056e-09
2.94898e-09
-7.2158e-09
-1.48498e-09
5.75181e-09
-1.1781e-10
7.99082e-11
-5.97678e-09
-9.98598e-11
1.17001e-09
4.90663e-09
3.82593e-09
-4.91494e-10
2.19466e-10
-3.5539e-09
-4.0895e-09
-1.75907e-10
9.75508e-11
8.28211e-10
-4.17679e-10
4.20064e-09
5.5505e-09
1.01392e-10
-1.44856e-10
-5.50704e-09
-3.68992e-09
-6.62159e-10
1.79905e-10
1.24987e-10
-8.31957e-11
-4.00631e-09
-1.68157e-10
8.49617e-11
-3.99837e-09
2.05226e-10
-5.99893e-11
3.85313e-09
-5.3117e-09
3.65196e-09
-2.22778e-09
3.88752e-09
-5.29973e-09
3.68669e-09
1.61304e-09
-2.96924e-09
3.8294e-09
-6.51929e-09
5.65914e-09
-4.78095e-09
4.97525e-09
4.26451e-09
-4.45881e-09
3.57434e-09
7.80035e-11
-1.05397e-10
-3.54695e-09
-3.97137e-09
-1.51496e-10
1.02008e-10
-1.56576e-09
4.02645e-09
-5.99686e-09
3.53618e-09
-6.49246e-10
-1.05142e-10
6.41056e-11
3.80397e-09
3.68148e-10
-4.30939e-09
1.37277e-10
2.7573e-09
2.50048e-09
-1.07247e-09
-4.18532e-09
-3.88432e-09
3.87007e-09
6.95341e-13
1.35584e-11
1.01756e-09
1.01328e-09
-6.31766e-09
4.28682e-09
-8.3158e-09
2.69939e-09
7.47986e-09
-2.4024e-09
2.6816e-09
-4.65915e-09
4.37995e-09
-3.72833e-09
3.57551e-09
1.59667e-10
-6.83969e-12
-5.43404e-09
1.08918e-10
-2.04242e-10
5.52937e-09
1.61774e-10
-4.09303e-11
-3.85084e-09
3.73e-09
-2.63751e-09
2.45508e-09
-2.07355e-09
2.25598e-09
1.08586e-10
-4.289e-09
-3.06193e-10
4.4866e-09
-7.31341e-09
4.58728e-09
-2.43109e-10
1.61568e-10
-3.47411e-10
-3.76176e-09
3.94761e-09
-3.25121e-09
8.58228e-10
3.694e-09
-1.30102e-09
-5.81403e-09
3.91902e-09
4.84399e-09
5.68904e-11
-3.55576e-09
3.49887e-09
-7.36423e-10
-4.14672e-09
1.18915e-09
3.69399e-09
-4.31507e-09
4.45883e-09
5.12784e-11
-1.95036e-10
-7.61265e-10
3.53299e-09
-2.73064e-09
-4.108e-11
-3.83374e-09
-7.96562e-12
-4.26226e-11
4.52048e-10
-8.52042e-09
-5.80137e-11
1.38938e-10
-5.54589e-09
5.46496e-09
-5.18526e-09
4.85779e-09
-1.81189e-09
2.13936e-09
-2.58122e-11
3.47918e-09
-3.45337e-09
4.897e-09
-1.70516e-10
5.33187e-11
-4.7798e-09
3.68428e-09
7.63293e-11
-1.25509e-10
-3.6351e-09
-1.44769e-09
8.43925e-10
4.18343e-09
-3.57966e-09
4.61796e-09
-8.71549e-09
7.13041e-09
-3.03288e-09
-3.9745e-09
5.90791e-11
-9.08894e-11
3.90157e-09
-3.84675e-09
7.10897e-11
-1.25907e-10
4.45876e-09
-4.76913e-09
6.17274e-10
-3.06908e-10
-5.99082e-09
3.06959e-09
-3.18726e-09
6.10848e-09
-4.37403e-09
4.30058e-11
4.65744e-09
-3.26413e-10
-6.95692e-09
2.87401e-09
6.44352e-09
-2.36061e-09
3.80597e-09
-3.7492e-09
7.41955e-11
-1.30967e-10
7.90999e-10
-1.93172e-09
4.00379e-09
-2.86306e-09
-2.0068e-08
1.57105e-10
1.99109e-08
3.05122e-11
-3.83962e-09
3.81325e-09
-4.14359e-12
1.44099e-09
-6.80967e-09
-1.12752e-09
6.4962e-09
4.04544e-09
5.43355e-09
-4.20469e-09
5.06791e-09
-2.01746e-10
3.08376e-11
-1.54697e-10
-6.37866e-09
-1.05332e-09
7.58668e-09
-3.39259e-09
3.59847e-09
-1.11189e-10
-9.46937e-11
3.64439e-09
-1.44449e-10
-1.21392e-10
-3.37855e-09
3.36576e-11
-3.34395e-09
3.31029e-09
-2.41119e-10
4.50471e-10
4.24941e-09
-1.22113e-09
3.70492e-10
-4.46106e-09
-4.79573e-09
-5.80177e-09
4.60668e-09
-5.21433e-09
2.0136e-09
-1.29857e-10
3.33059e-09
9.03749e-11
4.93634e-09
-4.68101e-09
-5.72526e-09
-1.05483e-09
6.667e-09
1.13088e-10
-2.1694e-10
-4.76401e-09
4.81043e-09
-4.30644e-09
4.44292e-09
-3.15e-10
1.78513e-10
-1.02421e-10
5.84974e-11
5.29325e-09
-2.16503e-09
2.12399e-09
-5.25221e-09
-3.61679e-09
3.58416e-09
-8.18981e-11
1.14523e-10
4.65635e-09
-6.86888e-10
-4.04901e-09
7.95494e-11
-1.50201e-10
8.0398e-11
-4.62617e-09
-1.28758e-08
-1.06806e-09
8.17051e-09
-9.91767e-09
-9.83751e-09
1.15847e-08
2.24978e-09
5.18446e-09
-3.62403e-09
-8.52361e-09
6.89018e-09
9.80395e-09
-4.66436e-09
5.7895e-10
4.08541e-09
3.38884e-09
-1.79218e-09
6.69793e-10
-2.26645e-09
4.54401e-09
-3.71122e-09
-1.62906e-09
7.96277e-10
-6.98181e-09
-1.00682e-09
9.79913e-10
7.00871e-09
-4.26746e-09
4.48116e-09
6.25118e-09
-6.46488e-09
-7.62425e-09
-2.19945e-09
7.32568e-09
1.19303e-10
3.46019e-10
-6.16884e-09
5.70352e-09
-7.3672e-09
-4.71304e-09
1.77635e-09
-3.86388e-09
3.7692e-09
1.17197e-10
-2.2523e-11
-3.84445e-09
4.0316e-11
-2.95968e-11
2.00426e-09
-1.21953e-08
1.13397e-08
-1.14864e-09
-5.13946e-09
4.99176e-09
-1.71871e-10
3.19576e-10
-2.91027e-10
2.5764e-11
-3.02231e-09
-8.43044e-09
8.29134e-09
3.1614e-09
3.63451e-09
4.28252e-09
-5.19816e-09
4.01478e-09
-3.93775e-09
-1.52919e-10
7.58939e-11
3.41998e-09
3.96563e-09
-3.50515e-09
3.72766e-09
6.68247e-10
-1.00706e-09
-4.60719e-09
3.56994e-09
-1.83881e-10
4.05508e-09
-3.87669e-09
2.17992e-10
-3.96386e-10
-4.20454e-09
4.12969e-09
-1.38579e-10
2.13423e-10
5.61926e-09
-3.50879e-10
-5.41789e-09
1.49503e-10
-8.00564e-09
5.78642e-09
-3.59481e-09
-5.35414e-09
-3.46699e-09
2.69248e-09
6.12865e-09
-6.31219e-09
1.11426e-09
5.4294e-09
-2.3147e-10
-3.85036e-09
-1.50124e-10
-3.39759e-11
-4.18496e-09
-3.06552e-10
1.17476e-10
7.93919e-10
-4.4888e-09
4.13229e-09
-4.37412e-10
-4.88939e-09
-1.86482e-09
2.29819e-09
4.45603e-09
-4.43544e-09
5.15004e-10
7.58589e-12
4.6828e-10
-4.45634e-09
4.37436e-09
-5.9631e-10
4.7883e-11
-3.91778e-09
3.90182e-09
-4.24953e-09
4.2655e-09
-2.64126e-10
9.51851e-10
-4.60551e-09
-7.94356e-09
-3.0371e-09
7.95835e-09
4.42477e-09
-4.57249e-09
1.47718e-10
2.94378e-09
-7.52397e-09
-2.37673e-09
3.88403e-09
-2.32297e-10
-3.62122e-09
-4.05528e-09
-1.20191e-10
4.07243e-09
1.03037e-10
1.30093e-08
-1.565e-08
-8.58048e-09
1.12212e-08
-4.83325e-09
-1.21152e-09
5.80298e-09
-1.43613e-09
5.42334e-09
-5.68255e-10
-5.14379e-09
-8.88392e-10
6.60044e-09
-1.22482e-09
2.64622e-10
-3.33588e-09
-4.43858e-10
-1.43358e-10
6.96435e-11
-3.94758e-09
5.84849e-11
-3.64889e-11
2.7891e-09
-4.24079e-09
-4.99617e-09
6.44786e-09
4.46616e-11
-4.23078e-09
4.18612e-09
-7.74862e-09
3.6544e-09
5.11178e-09
-5.87828e-09
-1.5464e-08
6.71159e-09
1.46307e-08
1.37851e-10
4.28692e-09
3.83664e-09
-3.50048e-09
2.04896e-10
-5.41059e-10
4.0201e-09
-3.98994e-09
-3.05143e-09
3.02127e-09
1.30398e-08
-1.4081e-08
7.1935e-09
-6.15231e-09
-1.23656e-10
6.52306e-11
1.25869e-09
1.28288e-08
-1.34868e-08
-6.00636e-10
-1.09545e-09
-3.24596e-09
2.34843e-10
3.87736e-09
-3.79935e-09
-1.41397e-10
6.3387e-11
6.57378e-09
-5.62852e-09
-4.27829e-09
3.33303e-09
1.09853e-10
-4.1778e-11
-1.55439e-09
4.28744e-10
-4.85113e-09
-3.96856e-09
6.94219e-10
4.06534e-09
-5.68301e-09
4.57515e-10
-1.46399e-10
5.37189e-09
-4.46361e-09
1.46726e-10
-8.06879e-11
4.1363e-09
-4.64885e-09
-2.40712e-10
7.53261e-10
-4.08089e-09
-1.65879e-09
4.10726e-09
1.63242e-09
-8.84173e-10
-4.64131e-09
4.60168e-09
9.23804e-10
5.769e-09
3.42375e-10
-1.00769e-09
-5.10369e-09
-4.56536e-09
1.0211e-09
-1.19728e-09
4.74154e-09
-4.96802e-09
6.15606e-09
-1.18804e-09
-5.09963e-09
-3.998e-09
3.32236e-09
5.77526e-09
-3.86168e-09
4.88428e-10
-4.66366e-10
2.34606e-10
-3.89269e-09
-7.02451e-11
1.50072e-09
-5.4994e-09
-6.08515e-10
3.51361e-09
-1.25282e-10
-3.43729e-09
4.89689e-11
-4.13969e-09
-7.31753e-10
1.29755e-09
3.57389e-09
-6.67835e-11
-5.15288e-12
4.60575e-09
-4.00349e-09
2.8287e-09
-3.43096e-09
3.81106e-10
-1.20855e-10
4.09033e-09
-1.0478e-08
2.9989e-09
7.72401e-09
-2.4496e-10
3.69296e-09
-1.09943e-10
-3.63357e-09
5.05543e-11
1.027e-09
-9.82118e-09
7.91403e-09
5.1711e-09
2.96176e-10
-6.08969e-10
-4.85831e-09
-4.72231e-09
-3.40602e-10
5.74862e-10
4.48805e-09
-3.25956e-09
-5.5188e-09
6.44148e-09
2.33688e-09
-7.35058e-09
-9.0575e-09
-3.64751e-09
-2.73556e-11
6.3779e-11
-1.89152e-08
1.61414e-08
-3.10439e-09
-4.20595e-09
-2.33447e-10
1.32963e-10
3.37541e-09
-3.52054e-09
1.61798e-09
-1.47285e-09
7.86675e-10
-1.09894e-09
6.13263e-09
-5.82036e-09
4.10129e-11
-9.34669e-11
3.85101e-09
2.38913e-09
-4.61736e-09
-6.62302e-09
-8.98315e-09
-3.55849e-09
7.91547e-09
-3.74864e-09
3.50463e-10
3.39818e-09
-4.68489e-09
4.72311e-09
1.8273e-10
-2.20944e-10
-1.94957e-10
1.31258e-09
3.99815e-09
-5.52935e-11
-3.61518e-09
5.36822e-11
-4.65593e-09
-2.33557e-10
2.04598e-10
-5.84279e-09
6.0051e-09
-7.61215e-09
1.61829e-10
-8.10782e-11
-1.18859e-10
1.37202e-10
5.10188e-09
-5.12022e-09
-8.23528e-09
-6.55363e-09
5.30408e-09
-3.54493e-10
-5.51041e-09
8.9841e-10
4.96649e-09
2.72677e-09
-4.43247e-09
3.07062e-09
-2.67278e-10
-3.8684e-09
6.61001e-10
3.47467e-09
-3.84792e-09
5.83666e-09
-5.24831e-09
-3.21373e-10
-4.17395e-09
4.49532e-09
-2.3319e-10
9.98835e-11
-3.10551e-10
8.21793e-09
1.59497e-09
-1.09943e-08
3.83172e-09
-2.55546e-09
-6.37589e-09
2.99073e-09
-1.726e-09
3.45185e-09
-9.28048e-10
3.79221e-09
-5.11074e-09
4.14239e-09
3.34517e-10
6.33839e-10
6.13742e-09
4.39242e-09
-5.92409e-09
2.22855e-09
-5.89556e-10
-4.67487e-09
3.03588e-09
7.22222e-09
8.08842e-11
9.14826e-10
-4.08459e-09
4.06104e-09
-3.86834e-09
2.28531e-09
-8.1937e-10
2.03367e-09
-4.56447e-09
3.98921e-09
-1.45841e-09
-4.87786e-09
-3.51625e-10
4.84677e-09
3.82716e-10
-3.8317e-09
-4.38008e-11
6.08021e-11
3.8147e-09
4.81223e-09
-4.91209e-09
-4.20779e-09
1.64233e-09
5.24705e-09
-1.38257e-08
-8.42284e-09
8.371e-09
1.38776e-08
-5.35495e-09
5.35431e-09
3.34268e-11
-3.2792e-11
-4.41322e-09
7.21777e-09
4.35319e-09
-7.15774e-09
1.38377e-09
-1.42635e-09
7.42164e-10
-5.64162e-10
-1.67103e-08
1.80666e-08
-6.64509e-09
5.28878e-09
-4.07235e-10
3.14696e-11
-1.30634e-08
1.34392e-08
2.28648e-09
6.11255e-09
-5.3694e-09
-3.02963e-09
4.0368e-09
-1.02792e-09
7.59886e-10
-3.76877e-09
7.94265e-11
-1.39824e-10
-6.79146e-09
-7.70075e-09
6.74676e-09
7.74545e-09
-2.24573e-10
1.06551e-10
2.0683e-09
-1.13303e-09
2.63988e-09
-3.57515e-09
-3.83149e-09
6.9994e-11
-1.86084e-10
-2.28787e-09
6.13413e-09
1.44699e-09
-3.94949e-10
3.7026e-10
-2.30314e-10
2.55003e-10
4.03165e-09
-5.08361e-09
3.84107e-09
-2.60052e-10
-4.63255e-09
4.31164e-09
-8.4618e-10
-3.88823e-09
4.04753e-09
-3.63059e-10
-4.47714e-09
-1.70747e-10
-1.80293e-08
-5.12958e-10
-4.91976e-11
1.85915e-08
-3.34861e-10
-5.42164e-09
-4.81617e-09
-3.53615e-09
3.4937e-09
-8.30516e-11
1.25497e-10
1.6608e-10
3.41867e-09
-6.21077e-11
-2.78448e-09
2.09296e-09
1.82489e-08
-1.75574e-08
-2.00051e-10
-3.46521e-09
1.07317e-09
2.59209e-09
1.80827e-09
-3.51309e-09
5.02578e-09
-3.32096e-09
-1.1832e-09
2.33186e-09
-5.73412e-09
4.58545e-09
-5.15826e-10
1.56834e-09
6.6661e-09
-2.3551e-09
-5.87933e-09
-5.07907e-09
2.88097e-09
-3.77088e-09
3.70818e-09
-4.6965e-11
1.09657e-10
-1.13511e-09
-4.19715e-09
4.84473e-10
4.84779e-09
4.16609e-09
2.58078e-09
-4.14805e-10
4.8678e-09
3.06199e-10
-4.75919e-09
4.04243e-09
-3.99409e-09
-2.62924e-10
-4.12271e-09
2.89442e-10
4.0962e-09
1.50305e-09
-4.58722e-09
2.04958e-10
-2.73668e-10
3.06422e-09
-6.03249e-10
2.96332e-10
3.59504e-09
-3.55077e-09
-4.42718e-11
8.73618e-11
5.14299e-09
-5.92504e-11
3.56818e-09
-3.51614e-09
8.77188e-12
-6.08143e-11
-4.96488e-09
4.2016e-09
-2.52943e-10
1.01622e-09
1.65588e-10
-3.37894e-10
-4.41492e-09
2.67539e-09
-1.2795e-09
-6.05504e-09
-4.56389e-09
-5.54116e-09
5.02256e-09
5.08249e-09
-4.15688e-09
1.07632e-10
-9.15636e-10
-4.53973e-09
4.44548e-09
2.00193e-10
-1.05946e-10
-1.25755e-08
1.36255e-08
-1.05e-09
5.36853e-09
-6.64255e-09
9.10961e-10
-2.43219e-08
1.61122e-08
-1.18584e-08
7.56326e-10
-4.96736e-09
-8.26354e-11
4.29367e-09
1.23466e-08
-1.20274e-08
2.21803e-09
-2.53725e-09
-2.51253e-10
-4.95678e-09
3.22119e-10
4.88591e-09
3.96797e-09
-1.49614e-09
-3.85295e-09
1.38112e-09
4.34157e-09
-8.56203e-10
-5.4171e-09
9.97393e-10
-6.36293e-09
-6.85001e-11
2.33673e-10
-4.63555e-09
5.61014e-10
-8.32902e-10
-2.97933e-09
-4.66337e-09
-7.38457e-10
4.51765e-09
-4.39516e-10
-4.88096e-09
4.42624e-10
-1.28518e-10
-3.73418e-09
6.3353e-11
2.73867e-09
2.84611e-09
-1.68296e-09
3.93171e-09
-4.54378e-09
-1.26518e-11
6.2472e-10
-1.39487e-10
3.7693e-09
1.45828e-11
-4.43172e-09
3.92593e-09
3.86493e-10
1.19297e-10
4.10109e-09
-4.13239e-09
-4.97726e-09
1.87612e-09
-6.06072e-10
3.70722e-09
3.20265e-09
-3.61044e-09
1.8778e-10
2.20007e-10
6.48494e-09
-1.07655e-09
-5.40839e-09
5.08242e-09
3.44707e-09
-4.69778e-09
3.31977e-09
-2.7855e-09
1.88942e-09
-1.01533e-10
6.07499e-11
3.70645e-09
-4.06188e-09
-9.65018e-10
1.55843e-09
2.96618e-09
-3.55959e-09
-1.56746e-09
2.0995e-09
-2.50435e-09
1.97232e-09
8.21245e-10
-1.061e-09
5.57972e-09
-5.33997e-09
4.15582e-11
-3.53642e-11
5.66383e-09
-5.97459e-09
-6.48071e-09
-1.33644e-09
4.27397e-09
1.06626e-09
-6.38325e-10
2.27815e-10
-5.5853e-11
4.66363e-10
-4.01633e-09
2.36769e-09
-9.39017e-11
-2.51925e-10
-4.40246e-09
-2.21729e-11
4.67656e-09
1.81361e-09
-3.9575e-09
6.21789e-09
3.85217e-09
-2.88578e-09
2.76282e-09
-3.72921e-09
3.89708e-09
3.51468e-11
-1.39568e-09
-2.53655e-09
-2.57607e-09
2.12645e-10
-2.61545e-09
-3.90745e-09
5.87586e-09
6.47039e-10
-4.94072e-10
5.47141e-09
2.40684e-10
-5.21802e-09
7.65798e-10
-5.46702e-09
5.5745e-09
-8.73284e-10
3.27704e-09
-2.71904e-10
-5.78765e-09
-7.67068e-09
2.98037e-09
-4.43531e-10
8.37464e-12
-4.54211e-09
4.6549e-09
-4.53488e-09
-2.27204e-10
1.0718e-10
-2.39979e-10
-4.06306e-09
1.18085e-10
-4.62835e-09
-1.32336e-09
-6.74955e-09
-2.18469e-09
3.14659e-09
-5.41964e-10
4.21812e-09
2.86028e-10
-3.96218e-09
-4.55779e-10
4.56172e-09
-4.10594e-09
-3.85571e-09
3.73115e-09
5.1738e-10
-3.9282e-10
-5.64982e-10
-4.11017e-09
4.3686e-09
-3.94926e-09
-3.86753e-10
1.79132e-10
-2.90667e-10
5.40288e-09
-5.54339e-09
4.31177e-10
-5.87839e-09
4.17719e-09
-4.21904e-09
2.39425e-10
-1.97574e-10
-4.30081e-09
1.41648e-10
-4.15918e-11
4.20075e-09
-5.07681e-10
2.45395e-10
-3.78672e-09
-5.93387e-09
5.86251e-09
1.90663e-10
-2.83961e-14
3.59507e-09
-7.80193e-10
-1.24919e-11
7.92512e-10
-8.38163e-10
5.2688e-09
2.15675e-09
-6.5874e-09
1.22255e-10
-7.424e-11
5.68535e-09
-5.72602e-11
-8.8321e-12
-7.96221e-09
2.11791e-09
-6.26418e-10
6.47073e-09
3.80525e-10
-2.68022e-10
-5.07451e-10
5.86364e-10
2.43922e-09
-2.98389e-09
-4.16948e-11
4.34955e-10
-3.50444e-10
-4.80682e-09
-4.6939e-09
-1.7056e-09
3.41294e-09
2.98657e-09
-5.23634e-10
2.92174e-09
-3.6258e-09
-3.20583e-09
-4.94308e-09
4.29417e-10
3.88013e-09
-3.20057e-09
3.87148e-09
-2.11512e-10
-4.1082e-09
1.13762e-10
-5.9366e-09
1.86741e-09
4.41521e-09
-3.98082e-10
2.19738e-10
-3.20138e-09
2.67416e-10
-1.29481e-10
4.74421e-09
-2.76965e-09
1.04671e-09
8.96511e-10
5.98032e-09
-8.92329e-10
-5.9845e-09
-5.50253e-09
4.70065e-09
-2.06543e-10
3.84958e-09
8.95651e-09
-4.31064e-09
-9.08781e-09
8.44945e-09
1.66536e-09
-1.6912e-08
-3.524e-09
6.44714e-09
1.39889e-08
-4.22569e-10
5.66977e-10
-4.00012e-09
6.94211e-09
-7.01582e-09
3.0175e-09
7.18168e-09
5.7602e-09
-6.2773e-09
8.23108e-10
-9.93331e-10
4.13819e-09
-7.74623e-11
3.10749e-11
-1.33686e-09
-4.43957e-09
-3.6025e-09
2.34128e-09
4.12727e-09
-2.86604e-09
5.24746e-09
-2.2144e-09
7.70407e-11
-3.1101e-09
-1.1838e-10
-4.78559e-09
6.82703e-09
-5.2611e-09
5.31062e-12
-1.57125e-09
3.35239e-09
-1.19342e-09
-3.25442e-09
6.26376e-09
-6.66512e-09
5.27131e-10
-1.25772e-10
2.83611e-09
-2.05979e-09
-8.24469e-09
3.71962e-09
-1.12938e-09
9.74602e-10
-5.55355e-10
3.27117e-09
-8.65241e-09
1.48502e-10
4.13037e-09
-4.22039e-09
-6.96399e-09
8.60108e-10
5.1725e-09
9.31374e-10
5.46677e-10
-4.75058e-09
-7.14088e-10
-4.73394e-09
-1.09523e-10
2.06759e-10
4.6367e-09
3.45007e-09
-6.26926e-09
1.68616e-09
5.73377e-09
3.753e-10
-5.78145e-09
5.697e-09
4.70241e-09
5.25631e-09
-1.59815e-09
-4.11394e-09
2.90925e-09
-2.68344e-09
-2.25811e-10
7.39487e-10
-6.10764e-10
-3.96021e-09
-3.38196e-10
-3.42334e-10
2.45208e-10
5.00909e-09
-5.08337e-09
7.42793e-11
-4.88072e-09
-1.0447e-10
-3.98185e-09
4.00714e-09
-1.5498e-10
1.29685e-10
-3.13518e-10
4.87523e-09
-3.23942e-10
2.3056e-09
-3.17508e-09
7.04739e-09
2.4454e-09
-6.3495e-09
-3.1433e-09
-1.04439e-09
6.20313e-09
-2.42676e-10
-1.45027e-08
1.92719e-09
1.89494e-10
-8.52662e-09
1.672e-09
-2.39305e-10
3.68286e-10
4.28749e-09
-4.41647e-09
1.20643e-09
-7.05672e-09
1.19877e-08
-7.07249e-09
6.59281e-09
3.97695e-10
3.6868e-09
-4.09331e-09
8.81566e-12
-1.56611e-10
-4.05597e-09
3.47218e-10
3.86536e-09
7.39786e-11
3.88276e-09
-3.80513e-09
3.68996e-11
-7.96854e-11
3.06969e-09
-3.50938e-09
4.39685e-10
-4.90866e-09
4.62911e-09
-4.5014e-09
2.35871e-10
-4.2965e-09
-1.43908e-10
6.19235e-11
3.9866e-09
-4.21642e-09
1.67899e-10
3.77541e-09
5.96764e-12
-3.74889e-09
-3.07754e-10
3.60471e-10
4.14888e-09
-3.66738e-09
5.87817e-10
-1.51626e-09
4.59582e-09
-1.11678e-08
1.62184e-09
-4.32004e-13
9.54638e-09
-1.09044e-09
-4.90978e-09
5.28027e-09
4.13505e-09
-2.98534e-09
-6.42998e-09
4.15014e-09
-6.52999e-09
-2.94436e-10
1.09916e-09
-5.53045e-09
-1.50556e-08
1.67079e-09
7.70368e-10
-1.0409e-09
3.99819e-09
-1.65252e-09
-8.52889e-10
2.19425e-09
3.11165e-10
-6.81318e-10
4.84227e-09
-5.2514e-09
4.79126e-09
-4.7039e-09
2.36667e-10
-6.96086e-09
-4.29145e-09
1.62916e-11
4.18511e-09
-1.69062e-09
5.17209e-09
7.73267e-10
-4.25474e-09
4.69807e-09
-2.37772e-09
2.99069e-09
-5.31104e-09
-5.92756e-09
-1.15044e-08
9.19666e-09
1.55383e-09
4.53611e-09
-7.23366e-09
2.89279e-09
-4.98117e-11
-1.63432e-09
-4.58513e-09
-3.66441e-09
-9.79529e-09
6.0925e-09
1.66112e-10
4.35924e-09
-7.987e-11
7.49556e-11
-2.13656e-11
-3.40894e-09
3.25917e-09
-1.14665e-10
2.64429e-10
1.14617e-08
4.2606e-10
-9.4264e-09
-2.46137e-09
3.33947e-09
-4.27458e-09
-2.76416e-10
-8.07568e-10
-6.94089e-09
5.14798e-10
-6.80949e-09
-3.15739e-10
-5.38496e-10
-3.36643e-10
7.31781e-10
6.31383e-11
2.99045e-09
-4.32888e-09
3.8805e-09
-3.72456e-09
3.30261e-09
-3.20385e-09
1.39478e-09
-1.17668e-08
-7.95763e-10
-4.85972e-09
2.14101e-10
3.60123e-09
3.32934e-09
-3.70309e-09
4.77753e-09
4.28006e-09
3.56542e-09
-4.7098e-10
-4.54739e-09
4.60357e-09
-4.55907e-09
6.78827e-09
5.73059e-09
-5.91246e-09
5.91563e-09
4.21801e-09
-4.39617e-09
1.73199e-09
-5.47975e-10
4.2516e-09
3.51464e-10
-1.25216e-09
4.39807e-09
-5.69163e-09
4.56109e-09
7.57227e-11
5.00828e-09
-5.10389e-09
9.56103e-11
-4.8418e-09
4.8339e-09
2.89273e-10
-2.8137e-10
4.02637e-09
-4.1859e-09
3.0803e-10
-4.38744e-09
-1.00637e-08
-2.40362e-09
6.12364e-10
4.2422e-09
-4.03056e-09
-2.34407e-09
2.13243e-09
1.37478e-10
-5.46998e-09
5.02086e-09
3.1164e-10
4.63635e-10
-6.16083e-09
4.10241e-09
2.54253e-09
-4.78111e-09
5.74217e-10
-3.35824e-09
2.70259e-09
-6.75275e-09
-8.0587e-09
3.2279e-10
8.18744e-09
-4.51534e-10
2.7448e-10
-5.02996e-09
-1.25241e-10
1.33021e-08
3.98401e-09
-4.2463e-09
-1.42457e-10
-3.8453e-09
3.90031e-09
8.74495e-11
4.49261e-09
2.38462e-10
-4.97037e-09
-5.47869e-09
-4.23039e-10
-4.50314e-09
-7.78996e-10
5.65263e-09
-4.77266e-09
4.7226e-09
-4.03351e-10
4.53414e-10
-8.66639e-10
4.08937e-09
9.95277e-10
-2.11327e-09
-5.62378e-09
4.975e-09
2.76205e-09
-5.34711e-09
2.88779e-09
4.50933e-09
-2.05001e-09
-4.94904e-09
4.52245e-09
-7.13299e-11
-3.24857e-09
-7.92362e-09
3.82161e-09
-2.24599e-09
6.60644e-09
1.87508e-09
-4.91858e-11
-7.10358e-12
4.87093e-09
-4.71476e-10
-5.08077e-09
-3.63878e-10
4.29693e-10
3.98688e-09
-4.0527e-09
7.12201e-09
-5.80434e-09
7.63883e-09
2.76299e-10
-7.42566e-09
1.36208e-10
-2.74005e-10
-3.81146e-09
-3.2416e-10
3.98641e-09
-4.02613e-09
1.06062e-08
-8.13661e-09
-2.46955e-09
-7.09676e-10
4.20743e-09
-3.88451e-09
3.79366e-09
-2.43439e-11
4.18042e-09
-4.13645e-09
8.80683e-11
-1.32037e-10
-1.44428e-10
1.88955e-10
7.73524e-10
-3.61495e-09
-6.69647e-10
3.51108e-09
2.89596e-09
1.33327e-09
4.29375e-09
-3.25705e-09
8.97783e-09
-1.12708e-08
-2.99281e-09
5.28581e-09
-1.04895e-09
-8.69861e-09
3.77757e-09
-3.39134e-09
2.82017e-10
4.59544e-09
1.22885e-10
-2.24399e-09
7.71173e-09
-9.5625e-09
3.35706e-10
4.21223e-09
4.13953e-10
-7.09852e-09
-2.67235e-09
4.26758e-09
-2.69013e-11
-5.05086e-09
3.68561e-10
4.38674e-09
3.56774e-09
-2.37558e-09
-5.57889e-09
-4.45143e-10
5.43407e-10
-5.37385e-10
8.58588e-10
4.07722e-09
-4.39842e-09
-2.44566e-09
-6.03944e-09
-4.7746e-09
1.1654e-10
-1.30449e-10
4.78851e-09
4.26076e-09
-1.54916e-09
-2.97111e-09
2.59511e-10
-4.69232e-09
-3.78196e-09
4.62637e-09
-4.01019e-09
3.1455e-10
4.06883e-09
-3.73196e-10
3.00637e-09
6.43038e-10
-3.87636e-09
2.26951e-10
4.70056e-09
-3.17004e-09
3.27285e-09
-4.80336e-09
-1.88488e-08
2.00272e-08
-1.17844e-09
3.27557e-09
-3.88809e-09
3.40059e-09
-2.78807e-09
1.14196e-10
-6.25648e-11
-3.95377e-09
-4.25067e-10
3.68646e-10
2.97013e-09
2.31322e-09
-2.70257e-09
1.69956e-11
-4.40786e-09
2.04962e-10
4.77179e-09
-5.96857e-09
1.89081e-09
-6.94022e-10
-7.97043e-09
-3.22121e-09
5.81673e-09
5.37491e-09
-8.26272e-09
-5.73407e-09
6.02637e-09
-7.89575e-09
-6.80316e-09
6.43619e-09
2.4957e-09
-4.74277e-09
-1.75093e-09
3.29934e-10
-8.19751e-10
-8.0741e-09
6.9251e-09
4.72756e-09
4.29994e-10
1.34175e-09
3.56751e-09
-4.84241e-09
3.02211e-09
9.7621e-10
8.44094e-10
-1.1248e-09
-4.04059e-09
1.97694e-09
3.18846e-09
-3.75346e-09
4.94087e-09
1.06495e-10
3.69118e-09
-4.00761e-12
-2.9648e-10
4.00592e-09
4.04056e-09
-3.89438e-09
3.7714e-09
-1.8478e-10
-2.06546e-10
8.4813e-11
6.56756e-09
1.99302e-10
-8.627e-11
7.5335e-10
4.51256e-09
-1.8451e-11
7.55964e-09
-8.21065e-09
-9.82192e-09
-1.45799e-09
-4.12079e-09
2.49806e-09
-4.29905e-09
-4.01337e-10
3.96396e-09
-7.28371e-10
-3.74203e-09
5.16629e-10
2.27519e-09
-2.53312e-09
2.60052e-10
-2.0298e-10
-4.08712e-09
2.78126e-10
4.12919e-09
-3.20196e-10
-2.33005e-09
2.27417e-09
3.37565e-09
8.9343e-10
-1.16693e-08
-4.94977e-10
8.0643e-09
3.04929e-09
-3.38483e-09
4.57773e-09
7.65884e-10
3.64092e-09
-1.39222e-10
-4.98003e-09
5.01203e-09
-3.1997e-11
-4.70499e-09
4.57975e-09
1.23464e-10
-1.15183e-09
1.21027e-09
-1.81908e-10
-3.01312e-10
-4.0731e-09
2.87298e-10
1.77387e-08
2.30619e-09
-1.33151e-09
-4.13044e-09
2.38156e-10
4.17041e-09
3.94241e-09
4.94174e-10
3.63837e-09
4.63479e-11
-1.54183e-09
-5.09831e-09
1.01249e-09
5.62764e-09
4.2808e-10
3.75867e-10
-3.01396e-09
2.21002e-09
4.69083e-09
3.73571e-09
-4.32412e-09
6.78195e-09
-4.77886e-09
1.85132e-10
4.09669e-09
-3.91354e-09
-3.50099e-09
-7.72725e-09
7.76124e-09
4.08328e-09
1.23395e-10
-3.93926e-09
-2.37551e-09
1.46223e-08
3.03702e-09
5.60486e-10
3.92081e-09
-4.0516e-09
4.45849e-09
2.70073e-10
-4.87131e-09
-4.07107e-09
-2.23743e-11
-2.06167e-09
-1.22026e-08
2.08715e-09
1.21771e-08
-1.68077e-09
5.02212e-09
-3.9088e-09
5.67442e-10
6.35625e-09
-6.07545e-09
-2.80797e-10
-6.03105e-09
5.35408e-09
-4.92286e-10
1.16926e-09
6.80397e-09
-4.23084e-09
-6.32659e-09
-1.07691e-08
4.05901e-09
-3.12221e-09
-7.49169e-09
1.40765e-10
-4.35812e-09
-1.13871e-10
4.33123e-09
-7.56784e-10
-3.40226e-09
6.19271e-09
2.69939e-10
-5.1215e-09
2.45545e-10
-3.20588e-09
3.71154e-09
1.61342e-10
-3.70787e-09
-1.65013e-10
5.99854e-09
-1.4044e-09
-3.9314e-09
-6.62737e-10
4.93871e-09
-5.44877e-09
-1.60321e-09
-4.02557e-09
-9.95294e-12
-1.97566e-11
3.45741e-09
-1.2384e-09
-3.67527e-09
1.45625e-09
1.02191e-09
-6.85149e-09
-6.51921e-09
7.9901e-09
1.67571e-09
-3.73887e-09
3.79916e-09
-5.87882e-10
5.27587e-10
3.69406e-09
-3.67381e-09
1.96083e-10
-2.1634e-10
2.43034e-09
3.94645e-09
-3.78255e-10
2.8125e-10
4.00726e-09
1.70833e-10
-3.99632e-09
3.70529e-09
9.09939e-09
-3.76308e-09
1.24024e-08
-4.63957e-09
-2.59501e-09
-9.01946e-10
2.85414e-09
6.42811e-10
-5.58677e-09
3.72596e-09
1.33717e-09
2.97634e-10
2.42514e-09
-5.89757e-10
-2.13302e-09
3.55497e-09
-7.36251e-09
-4.94226e-09
5.14823e-09
-1.98117e-10
2.35886e-10
-5.186e-09
-4.8447e-10
4.82997e-09
-4.81698e-09
-2.97245e-09
-1.28515e-09
-8.17602e-11
6.33345e-11
6.92591e-09
-5.69669e-10
4.95111e-09
-3.71131e-09
-6.51977e-10
1.46762e-10
3.82509e-09
2.31413e-09
-3.344e-09
4.26308e-09
-5.19603e-09
3.98847e-09
-4.02991e-09
4.8618e-09
4.4062e-10
-4.43984e-09
9.35951e-11
-1.88632e-10
3.90662e-09
-3.74129e-09
2.80414e-10
-4.45743e-10
-9.19333e-09
1.37768e-10
3.74449e-09
-3.7482e-09
-1.34056e-10
-3.88158e-09
3.50879e-09
4.20472e-10
-4.76752e-11
-4.1801e-09
3.81355e-09
3.86663e-09
2.22543e-10
-1.90629e-11
7.45399e-12
4.07504e-09
4.09527e-09
-4.0248e-09
2.4408e-10
-2.79956e-09
-1.84116e-09
2.05272e-10
-1.48558e-08
-1.05259e-08
3.98255e-09
1.19211e-09
-1.10055e-09
-4.07411e-09
-4.28188e-09
4.57151e-09
-8.01237e-09
4.4603e-09
-4.52674e-09
-3.03826e-10
3.70267e-10
-2.3418e-10
-4.69898e-09
4.6996e-09
-4.50291e-10
-9.83494e-09
-4.47482e-09
1.3863e-09
4.22367e-09
-1.13514e-09
6.76066e-12
-4.23754e-09
-1.72405e-10
-3.73646e-09
3.75629e-09
1.52575e-10
-3.21713e-09
-2.9612e-09
-5.17943e-09
4.49008e-10
-3.6683e-09
1.40064e-09
-3.91375e-10
2.65904e-09
-2.49809e-10
5.8188e-11
-4.94359e-09
-3.77294e-09
-7.28173e-10
3.98235e-09
-6.73508e-09
-3.81974e-09
4.08705e-10
2.65275e-09
7.58292e-10
-1.30167e-08
2.39155e-09
6.63075e-09
3.99435e-09
1.6302e-08
-9.83381e-10
1.05833e-09
4.85176e-11
3.26705e-11
4.8679e-10
-1.80582e-10
-3.06208e-10
4.31142e-09
-3.99858e-11
1.88863e-10
-2.69974e-09
-2.18025e-11
-4.05204e-09
-9.52776e-11
-3.97634e-09
2.27416e-11
-4.39523e-09
9.94491e-11
-4.89811e-11
5.62307e-09
-1.23051e-09
4.69239e-10
-1.17782e-09
-3.91471e-09
3.72812e-10
4.71973e-09
4.99206e-09
2.93547e-09
2.50071e-10
-4.01891e-09
1.45539e-10
-2.04448e-10
8.78716e-10
-8.19807e-10
2.54475e-10
-4.05311e-09
3.94407e-09
-1.45434e-10
8.75416e-10
4.49689e-10
-1.32511e-09
-7.39797e-10
1.58659e-09
-4.09131e-09
3.91256e-09
-1.40784e-09
1.20159e-10
3.82906e-09
-8.25832e-11
2.97016e-09
6.84595e-09
4.39318e-09
-4.71357e-09
5.90461e-10
2.88753e-10
-2.63711e-10
3.22906e-10
-2.33139e-10
4.19816e-09
-4.28793e-09
4.31422e-09
-3.45599e-09
1.20994e-10
5.62874e-10
1.51317e-09
4.06582e-09
-5.16737e-09
-4.11616e-10
5.40643e-09
-3.16774e-10
2.69545e-10