/*--------------------------------*- C++ -*----------------------------------*\
  =========                 |
  \\      /  F ield         | OpenFOAM: The Open Source CFD Toolbox
   \\    /   O peration     | Website:  https://openfoam.org
    \\  /    A nd           | Version:  7
     \\/     M anipulation  |
\*---------------------------------------------------------------------------*/
FoamFile
{
    version     2.0;
    format      ascii;
    class       surfaceScalarField;
    location    "114.5";
    object      phi;
}
// * * * * * * * * * * * * * * * * * * * * * * * * * * * * * * * * * * * * * //

dimensions      [0 3 -1 0 0 0 0];

internalField   nonuniform List<scalar> 
1111
(
7.23113e-09
1.28214e-08
-1.6067e-08
-3.98561e-09
7.15156e-09
-1.17555e-08
1.1835e-08
-1.47243e-08
5.95515e-09
8.70083e-09
6.835e-11
1.04062e-09
-1.2128e-09
-1.4407e-08
1.45792e-08
-1.4375e-08
1.42204e-08
1.19514e-09
-1.60108e-09
1.49162e-08
2.11346e-09
-2.39497e-09
9.19573e-09
-8.99979e-09
2.19903e-09
-6.72434e-09
-1.26094e-08
1.25949e-08
6.73885e-09
-5.0163e-08
-2.61233e-08
7.62864e-08
-8.07677e-09
7.7377e-09
7.49063e-09
3.19174e-09
3.86042e-10
-3.26733e-09
-3.10455e-10
1.58676e-08
-1.62794e-08
-2.32739e-08
2.36857e-08
-9.66714e-09
-7.90152e-09
8.80295e-09
8.76571e-09
-3.56045e-08
1.77425e-08
-3.23924e-08
5.02544e-08
9.48974e-09
-1.95841e-09
-1.42557e-08
-1.60335e-10
1.15281e-09
-2.41577e-09
1.4233e-09
-3.97497e-09
1.32638e-08
1.97363e-09
-1.12624e-08
8.80672e-09
-2.7103e-09
-1.50644e-08
8.96795e-09
3.71357e-08
-2.98015e-08
-7.33418e-09
-1.93987e-08
2.49652e-10
1.72215e-08
1.92763e-09
-1.08771e-09
4.2312e-09
-1.78295e-08
1.4686e-08
-6.12295e-08
-3.96108e-09
6.51905e-08
1.33645e-10
-1.06434e-09
-3.17191e-10
1.24789e-09
-1.82433e-09
-1.36383e-08
-4.86037e-11
-1.91171e-10
1.31536e-10
1.08239e-10
-1.04259e-08
-8.70268e-09
1.33225e-08
5.80615e-09
6.86527e-10
-2.14808e-09
-8.18147e-09
9.64302e-09
8.9261e-09
7.14144e-10
-1.00027e-08
3.62411e-10
-2.86014e-09
-8.15568e-09
1.12322e-08
-2.16415e-10
1.14167e-08
-1.10535e-09
-1.50464e-09
-7.17635e-10
7.32912e-10
-4.68486e-11
3.1572e-11
-2.47929e-12
5.82664e-10
1.13226e-10
-6.93411e-10
-3.50099e-10
-4.10083e-11
3.8088e-10
1.02277e-11
-7.4915e-11
-6.65418e-10
1.18101e-10
6.22232e-10
-1.25295e-10
-6.67254e-10
1.0389e-09
-1.83482e-08
-2.08945e-09
-2.77291e-10
3.31553e-11
-1.05962e-10
1.33777e-08
-1.32482e-08
4.10178e-09
-3.21769e-10
5.00689e-10
2.8918e-10
-4.681e-10
1.59964e-10
-9.42314e-10
8.37958e-10
-5.56081e-11
-1.74602e-09
1.07259e-08
-1.13748e-08
-1.87944e-10
-1.24283e-10
3.49361e-11
-8.69491e-09
1.07039e-08
-1.00858e-08
1.22984e-08
-1.71277e-08
4.4814e-09
3.47881e-10
3.72304e-11
-1.16705e-10
-1.08469e-10
1.10464e-10
6.87438e-10
-6.499e-11
-5.94934e-08
7.42248e-08
-1.47315e-08
9.43205e-10
-1.63135e-10
-1.03293e-09
2.52861e-10
1.13133e-09
1.03079e-08
-1.37133e-08
2.27403e-09
-1.99226e-09
7.96692e-09
-8.91428e-09
2.93962e-09
-6.82825e-09
5.52613e-09
5.75953e-09
-4.45742e-09
-7.98817e-09
-1.3644e-09
1.49807e-09
7.85451e-09
-1.8296e-10
-9.09124e-08
9.12985e-08
-2.03136e-10
-2.57703e-10
-8.97486e-08
9.01589e-08
-1.52527e-10
8.30789e-08
-1.49137e-09
1.09962e-10
-8.16975e-08
-2.6789e-09
-6.28702e-10
5.42834e-10
7.70746e-10
-3.70375e-10
3.86343e-09
-7.39568e-10
3.61116e-09
-6.73502e-09
-8.46972e-10
7.94302e-10
-1.49076e-08
6.56786e-09
1.00968e-08
1.08465e-09
-1.08785e-08
-3.02988e-10
-6.0199e-09
1.36917e-08
8.40847e-10
-8.51268e-09
1.44005e-08
-4.63424e-09
3.87234e-09
-1.36386e-08
1.53832e-08
1.67163e-09
-1.62604e-09
-1.73077e-10
-2.00868e-08
-7.44582e-09
2.77057e-08
1.46502e-08
-8.94469e-09
-1.81178e-09
8.10848e-09
-1.23166e-08
7.40422e-11
-4.13104e-11
-1.06566e-09
-3.608e-08
-2.34134e-08
8.38587e-09
3.35756e-10
3.57682e-09
-6.94625e-09
1.14103e-08
6.23987e-09
-5.2019e-10
2.63013e-10
4.20419e-10
-1.63242e-10
5.6323e-09
-4.85872e-09
3.71182e-09
-4.48539e-09
-3.35844e-10
-5.58549e-10
2.28976e-10
5.41841e-10
-4.64747e-10
6.27333e-11
-5.98204e-10
5.32992e-10
-1.8329e-08
2.37019e-09
1.62411e-09
1.43347e-08
1.7026e-10
-6.00546e-10
-8.99026e-11
-4.29594e-09
-1.52325e-08
1.19948e-09
5.62926e-09
1.21416e-08
-5.2449e-09
-1.2526e-08
1.63561e-08
7.72131e-10
-1.58174e-08
-1.31085e-09
-5.99254e-10
3.80802e-10
4.81466e-10
-1.80007e-10
7.72462e-11
1.0276e-10
-7.56184e-09
-3.4355e-09
4.1691e-09
-1.55539e-10
2.53669e-10
-9.81304e-11
9.98673e-10
-1.57205e-08
-6.98472e-10
1.02727e-08
-1.13203e-08
-8.19777e-10
-1.17272e-10
1.30261e-08
4.50461e-09
-4.224e-09
-1.33067e-08
2.86439e-11
7.26946e-09
-8.06703e-09
6.3237e-09
-1.52263e-09
-9.21903e-09
8.37855e-09
2.36311e-09
-1.99185e-09
7.11678e-10
-1.39524e-08
-7.78321e-11
-7.77063e-11
5.07638e-10
5.1954e-10
-9.01535e-09
8.00657e-10
1.72522e-08
-1.69675e-09
-1.17247e-08
1.31288e-08
-1.40413e-09
1.23202e-08
1.39096e-08
-1.54977e-08
-1.0732e-08
-4.17357e-10
8.04203e-10
-3.86846e-10
3.40993e-11
2.19777e-10
-2.53877e-10
-3.79742e-10
1.01841e-09
-6.3867e-10
1.18382e-09
-9.37849e-10
-2.45971e-10
-1.04726e-08
1.04683e-09
9.42581e-09
1.77784e-09
-5.94016e-10
8.98575e-09
-1.54318e-08
8.10247e-09
-9.58709e-09
7.20358e-11
3.53923e-09
-4.19519e-10
-2.16388e-09
2.23591e-09
-6.31082e-09
7.64797e-09
-1.33715e-09
-3.54803e-10
4.32814e-09
-1.09911e-10
1.72447e-08
-1.44767e-08
-1.63671e-09
-6.28712e-09
5.49715e-09
5.03941e-11
-1.63687e-10
5.62429e-09
-5.58305e-09
-4.12394e-11
6.78511e-09
4.60672e-09
-8.31724e-11
-1.5853e-08
1.05093e-08
1.76639e-08
5.85967e-09
8.19489e-09
8.14954e-09
-6.84776e-09
1.47429e-09
-1.19469e-08
-3.04673e-12
1.68285e-09
-1.30273e-08
2.65484e-09
-4.18925e-10
1.0924e-08
-1.01519e-08
-3.1504e-10
-6.30032e-10
-1.38401e-08
7.92301e-09
6.37896e-10
1.59096e-11
-8.87174e-09
4.94102e-09
-2.99746e-08
-1.25239e-08
-2.87226e-09
1.5561e-09
1.41459e-08
1.11368e-08
-1.08709e-08
-1.44118e-08
1.53405e-08
-3.20302e-09
-1.21375e-08
1.59195e-09
4.04473e-09
-7.88369e-10
-8.56684e-10
-7.62111e-10
1.04214e-09
5.76653e-10
-1.96696e-10
3.12373e-10
3.04742e-10
6.21478e-08
-6.21741e-08
2.62366e-11
6.20671e-08
-6.23715e-08
3.04367e-10
8.37629e-10
6.473e-08
-6.55574e-08
8.27365e-10
6.41218e-08
6.08202e-10
-2.23618e-10
-6.65027e-08
9.45303e-10
-6.20638e-08
6.19291e-08
1.34742e-10
1.31437e-09
-6.78171e-08
-6.22236e-08
1.59765e-10
1.28325e-08
-4.66538e-10
1.08871e-09
-3.69569e-09
3.07351e-09
2.58445e-10
-1.11922e-09
8.05373e-10
-4.46841e-10
1.33128e-09
-1.53937e-09
6.54932e-10
1.3132e-09
-1.36702e-09
1.25086e-11
-2.76386e-11
-3.48334e-09
2.57881e-09
-1.79979e-09
2.70432e-09
-2.46759e-10
-2.65618e-09
2.4364e-09
-3.40031e-09
-5.91583e-09
5.4653e-10
-5.37894e-10
1.06545e-09
1.0712e-09
-6.38966e-09
7.82702e-09
3.16936e-09
1.97141e-08
-4.37356e-09
-6.32151e-10
2.71692e-10
9.06989e-10
-1.00597e-08
-2.60203e-08
5.2014e-09
-4.14461e-09
-3.21738e-09
2.16059e-09
8.04072e-11
2.63125e-11
2.74161e-10
-2.43377e-09
3.25048e-09
9.0608e-09
6.38159e-10
-6.56885e-11
2.01844e-09
-2.19951e-09
1.6501e-09
1.4699e-08
1.33565e-08
-2.69187e-08
3.27267e-08
6.30624e-09
-2.28632e-08
-1.03617e-08
1.85864e-08
-1.80787e-08
1.06292e-08
2.60686e-11
-2.8189e-10
-1.1112e-09
-1.59255e-09
-2.7586e-09
3.04005e-09
1.52287e-08
-6.55998e-10
-1.38611e-08
-1.0131e-09
-2.07897e-09
4.3589e-10
1.54933e-08
1.77921e-08
1.36862e-08
7.84862e-10
-1.75919e-09
-1.27119e-08
-1.35463e-09
5.98712e-09
1.26683e-08
-3.56798e-10
-9.40487e-10
-3.70167e-09
2.83454e-09
3.44594e-09
2.52356e-09
1.46291e-08
4.35601e-09
-1.44805e-08
1.8194e-08
-1.76582e-09
2.27657e-09
-3.246e-09
1.93592e-09
-4.9735e-09
1.29097e-08
-1.19112e-08
-1.40586e-08
2.90402e-10
8.79469e-09
-1.74866e-09
1.45943e-09
1.35468e-09
-8.66955e-09
6.83834e-10
-4.53818e-09
-5.98743e-09
1.21655e-08
-1.48476e-08
9.24715e-10
1.69534e-09
-2.20179e-09
1.69182e-08
-1.64118e-08
-1.17864e-09
1.42088e-08
3.15003e-09
-4.53233e-09
-1.40495e-08
7.61858e-09
-1.75161e-08
-8.18121e-09
6.9873e-09
5.89524e-09
1.47209e-08
-1.01981e-08
2.98262e-09
9.57861e-09
9.77981e-09
3.90689e-09
-4.25683e-09
2.18691e-08
-1.93489e-08
5.09834e-09
-1.07756e-08
2.16942e-09
5.74203e-09
1.40761e-08
-4.30506e-10
1.28398e-08
-1.35879e-08
-1.94623e-09
1.45372e-09
-4.47238e-10
9.39752e-10
1.11274e-08
-6.35639e-09
7.37062e-09
-1.11691e-08
1.47814e-09
-4.73907e-09
1.15759e-08
-1.20817e-08
-7.59888e-09
9.29017e-09
9.43609e-09
1.30052e-08
4.76015e-10
-1.39117e-08
1.34988e-09
7.63462e-10
-1.12115e-08
-6.72149e-09
1.03341e-08
-1.2324e-09
2.50613e-09
-9.03121e-09
4.75242e-09
-5.38057e-09
1.17227e-08
-3.45534e-09
-1.19513e-08
3.68394e-09
-4.44839e-09
1.14321e-08
1.7169e-09
1.09241e-09
-5.09322e-09
-1.795e-08
1.0603e-08
1.24403e-08
6.82373e-10
-1.11507e-08
-1.00993e-08
1.61567e-08
1.27314e-08
2.89705e-09
-9.88643e-09
-1.33608e-08
-3.21103e-10
-1.27551e-08
1.77394e-10
-7.70783e-10
1.18256e-08
1.25567e-08
-8.23622e-09
1.67877e-08
-1.61361e-08
3.70445e-09
-5.35836e-10
1.82869e-09
1.30418e-08
-3.94455e-09
-1.28054e-08
-4.90322e-09
2.01917e-09
4.5669e-09
1.24741e-08
-7.237e-09
1.02944e-09
-1.70432e-09
2.65477e-10
-5.07392e-10
6.00597e-09
2.64923e-08
9.07554e-11
-8.94543e-09
8.85467e-09
2.87091e-08
-2.24535e-08
2.21349e-08
1.98507e-08
-1.27174e-08
-2.7473e-09
1.51903e-08
1.31943e-10
-1.21488e-08
-4.74325e-10
-5.99195e-09
-1.81615e-09
2.12322e-09
1.40982e-09
-5.98948e-10
-1.12266e-08
1.17003e-08
1.25209e-10
2.89995e-09
-4.86355e-09
-1.12972e-08
1.08244e-08
-9.44555e-10
-1.09953e-08
-3.14491e-10
-1.15086e-08
-2.36403e-09
-1.21668e-08
2.12871e-09
7.87207e-09
5.1668e-09
-6.41782e-10
-1.18289e-08
1.18717e-08
5.25281e-10
-8.97922e-09
5.08128e-09
-1.61979e-09
2.02232e-09
-1.70746e-09
-1.30683e-08
-1.232e-08
1.1769e-08
-1.01305e-08
-1.58447e-08
1.01222e-08
9.31674e-09
7.75717e-10
2.78508e-09
-1.17305e-08
1.16416e-08
1.66221e-09
3.84986e-09
2.46815e-10
-4.23494e-10
-1.59165e-10
-4.16742e-09
2.44247e-09
-3.54022e-10
1.25331e-10
-1.48182e-10
2.2851e-11
-2.73871e-09
1.32094e-08
2.2607e-09
2.51382e-09
4.49873e-10
-1.19558e-09
-6.78854e-10
-2.18021e-09
-1.26569e-10
1.31661e-08
1.02259e-08
-2.70632e-10
6.68186e-09
-1.25802e-09
-5.1532e-09
-9.8806e-09
-5.17238e-09
9.35505e-11
3.17808e-11
4.84226e-09
1.37337e-09
-1.73663e-08
-2.40226e-10
-6.75121e-10
-2.7751e-09
1.03059e-09
3.28653e-09
6.19506e-08
-8.56888e-11
-6.18649e-08
6.23745e-08
1.88617e-10
-6.25631e-08
-1.40935e-08
-3.94829e-10
1.44187e-08
6.95994e-11
3.29265e-09
-1.66724e-09
2.37289e-09
1.80048e-09
-4.57671e-09
-1.96231e-10
-4.58208e-10
3.7245e-10
-7.74828e-11
3.41731e-10
-2.19198e-10
1.98262e-08
9.92632e-10
-1.59766e-08
-8.10544e-11
-1.95317e-09
1.26881e-08
2.30691e-09
1.83122e-09
5.34227e-09
-2.14702e-09
-7.72313e-08
-2.41785e-08
-5.09087e-09
1.58387e-08
2.51591e-09
2.03432e-10
-2.73767e-09
-9.31617e-10
1.60577e-10
-1.69447e-10
-9.43455e-09
-3.73649e-10
9.8082e-09
-1.09612e-08
-6.54377e-09
1.07835e-08
-9.56603e-09
8.72972e-09
3.36526e-10
1.32062e-09
9.01966e-09
-9.03098e-09
1.13178e-11
5.22736e-10
8.7784e-11
1.10041e-08
3.81713e-10
-6.05412e-10
1.03212e-11
-1.42594e-08
-4.14892e-10
-1.38983e-08
1.28426e-08
-1.19447e-08
-6.60359e-08
6.49941e-08
1.04183e-09
1.70282e-10
-1.43969e-10
1.21831e-08
-1.53083e-10
4.90157e-12
-2.15091e-09
2.74558e-09
-3.40065e-09
-1.34653e-08
-1.62686e-09
2.57899e-09
-4.62266e-09
-1.42218e-08
1.47813e-09
5.52109e-09
9.7861e-09
-9.15824e-09
-1.73409e-10
2.03264e-11
-9.27096e-09
-1.35343e-08
1.50941e-10
-6.26909e-08
2.35553e-10
6.24554e-08
6.95465e-10
6.34264e-08
-2.23528e-10
-1.71624e-09
-1.45151e-08
1.07415e-10
-6.34101e-08
6.33027e-08
1.85289e-10
-6.29515e-08
6.27663e-08
2.71035e-10
6.17968e-08
1.50535e-10
-6.19474e-08
6.1628e-08
1.68874e-10
-8.78886e-08
8.84977e-08
-8.99452e-13
9.33921e-08
-9.30986e-08
-2.67272e-10
-8.66282e-08
-4.33052e-10
9.33512e-08
-1.82658e-10
-8.49156e-08
-7.6733e-10
9.34818e-08
1.73757e-10
-5.22324e-10
1.9617e-09
9.23577e-08
-6.93085e-08
6.21383e-08
-6.23213e-08
-6.29486e-08
6.14856e-08
1.42406e-10
-3.18852e-09
2.97471e-09
-1.42667e-08
3.67202e-11
5.68306e-11
9.33171e-10
8.68098e-09
-1.13913e-08
3.83468e-08
-3.45802e-08
-1.6794e-08
1.38275e-08
-2.53732e-11
-1.881e-10
9.9691e-11
4.7468e-10
-1.03447e-10
2.79202e-10
4.35878e-09
1.06421e-09
-3.48707e-09
-1.00584e-10
1.3374e-10
-6.56468e-11
-2.62209e-09
1.33584e-08
2.47307e-09
-1.44178e-08
-2.62124e-09
-3.19885e-09
5.46242e-09
1.05695e-09
-2.59504e-09
1.44108e-08
-1.21272e-09
-1.32729e-09
1.18217e-09
-8.14556e-09
-1.90912e-08
-1.3543e-08
8.08539e-09
5.74805e-09
-1.62898e-10
-5.83758e-10
2.86988e-09
1.45014e-08
2.29535e-09
-1.88055e-09
-3.39425e-10
3.89626e-10
-2.13887e-10
1.58754e-08
-6.16275e-10
-1.56328e-08
6.24642e-10
2.33436e-10
3.43712e-10
-2.8567e-10
3.34224e-09
-1.60954e-08
3.79147e-10
-1.42602e-09
-2.00421e-09
-2.26905e-09
1.58307e-08
-9.05931e-08
-1.34074e-10
9.16781e-08
-1.90941e-10
-8.91635e-08
-4.77733e-10
9.31013e-08
-2.75207e-10
-9.29118e-08
-5.2217e-10
-1.49787e-09
1.69409e-08
9.19796e-08
-1.98635e-10
2.96955e-11
-2.20858e-10
9.62161e-09
2.3453e-09
-7.01529e-09
-1.23423e-08
-5.67512e-09
8.35647e-09
1.54085e-09
-6.72796e-09
-5.97017e-09
9.06723e-09
-2.84157e-11
1.01153e-08
1.94962e-08
-1.79835e-08
3.09135e-09
-1.28509e-08
3.13684e-09
-6.99574e-08
3.92148e-09
-2.05988e-08
-1.30369e-08
-4.28638e-10
-5.91453e-09
-1.53187e-08
9.08442e-09
-1.5055e-08
3.58675e-10
3.04045e-10
-1.96941e-09
-1.68164e-08
1.72009e-08
6.94693e-09
-7.57564e-09
-4.23928e-09
1.53632e-08
-1.69465e-09
7.42216e-10
-6.76744e-10
-4.6321e-12
1.19645e-08
3.3133e-09
7.09115e-08
-1.82351e-08
6.25049e-10
-1.51235e-08
-2.04281e-10
-2.33274e-10
-1.6116e-10
6.09482e-08
-6.12234e-08
-6.33804e-08
-6.31502e-08
-6.41954e-11
-2.62209e-10
-9.25854e-08
-6.04511e-08
6.24128e-08
6.51041e-08
-6.02774e-08
6.45817e-08
-6.046e-08
6.38144e-08
-6.07273e-08
6.33813e-08
9.23082e-08
2.32379e-10
-6.32893e-09
7.51311e-08
-6.54889e-08
1.88464e-11
-1.88464e-11
-1.57681e-10
-2.91961e-10
1.54736e-08
2.90786e-12
-2.90786e-12
2.63838e-10
1.51257e-09
1.39162e-08
1.34882e-08
-2.701e-09
3.71189e-09
6.74962e-09
1.68023e-09
3.24416e-10
-2.16323e-10
-2.95655e-09
1.45684e-08
1.4841e-08
-4.2937e-09
1.1821e-08
1.4828e-10
1.20819e-10
2.62654e-09
-7.31341e-10
-1.43397e-09
-5.85879e-09
-1.85841e-10
-3.57571e-10
1.53145e-08
2.04365e-10
3.15523e-11
1.41677e-08
-2.62911e-08
1.79045e-08
2.71815e-09
1.16645e-09
2.50015e-09
-3.72246e-09
1.94446e-08
-1.82223e-08
-5.8985e-11
-9.26617e-11
-1.44129e-09
-7.92144e-08
-7.07497e-08
1.17738e-09
-2.53204e-10
5.87544e-10
2.30161e-08
1.86149e-08
-6.45553e-09
7.85459e-11
-4.1748e-09
-2.52495e-09
2.9966e-08
1.61777e-10
1.48185e-08
7.35781e-08
3.13231e-11
4.95949e-10
-1.27281e-10
-1.83699e-10
-3.53011e-09
2.43695e-08
-1.48675e-08
8.31517e-10
-1.42087e-08
-3.79849e-11
2.04107e-08
-2.87757e-08
9.70686e-10
1.80681e-09
-1.33475e-10
)
;

boundaryField
{
    back
    {
        type            empty;
        value           nonuniform 0();
    }
    ingreso
    {
        type            calculated;
        value           nonuniform List<scalar> 
14
(
-1.54286e-08
-1.54288e-08
-1.54288e-08
-1.54288e-08
-1.54286e-08
-1.54283e-08
-1.54288e-08
-1.54288e-08
-1.54286e-08
-1.54286e-08
-1.54288e-08
-1.5428e-08
-1.5428e-08
-1.54286e-08
)
;
    }
    salida
    {
        type            calculated;
        value           nonuniform List<scalar> 2(1.0141e-07 1.1459e-07);
    }
    front
    {
        type            empty;
        value           nonuniform 0();
    }
    defaultFaces
    {
        type            calculated;
        value           uniform 0;
    }
}


// ************************************************************************* //
