/*--------------------------------*- C++ -*----------------------------------*\
  =========                 |
  \\      /  F ield         | OpenFOAM: The Open Source CFD Toolbox
   \\    /   O peration     | Website:  https://openfoam.org
    \\  /    A nd           | Version:  7
     \\/     M anipulation  |
\*---------------------------------------------------------------------------*/
FoamFile
{
    version     2.0;
    format      ascii;
    class       volVectorField;
    location    "114.5";
    object      U;
}
// * * * * * * * * * * * * * * * * * * * * * * * * * * * * * * * * * * * * * //

dimensions      [0 1 -1 0 0 0 0];

internalField   nonuniform List<vector> 
591
(
(0.000840199 3.70891e-06 1.21573e-18)
(0.000838019 4.06527e-06 -6.60551e-19)
(0.00085073 2.95572e-05 5.69132e-20)
(0.000869496 -3.17267e-05 -1.49004e-19)
(0.000858967 -1.51688e-05 2.25423e-19)
(0.000803695 -3.73663e-05 -1.39559e-19)
(0.000555107 -0.000197776 8.06441e-19)
(0.00080345 4.07661e-06 2.10767e-18)
(0.00572006 0.00251216 9.87974e-19)
(0.000823792 8.27692e-06 2.43437e-18)
(4.48895e-05 0.00015551 1.21777e-18)
(0.000939843 0.00140039 9.40637e-21)
(0.000801541 4.4601e-06 1.32313e-18)
(0.00160589 0.00240623 -7.87359e-19)
(0.000803218 1.43732e-06 -4.46783e-19)
(3.33279e-05 -0.000122143 2.48952e-22)
(0.000142008 0.000663178 7.04744e-19)
(0.000818235 8.26584e-05 -4.97514e-19)
(0.00189205 0.000392899 4.73733e-19)
(0.00135738 0.000260738 -2.47103e-19)
(0.000829679 -8.94166e-06 3.73048e-19)
(0.00340086 0.00656043 -8.14167e-20)
(2.13545e-05 6.01912e-05 2.70835e-19)
(0.000835217 -2.69814e-05 -4.51542e-19)
(4.12605e-06 -8.90061e-06 3.58753e-19)
(0.000799535 4.96841e-05 0)
(9.54626e-05 0.000462748 1.59919e-19)
(0.000590295 -6.30329e-06 -1.78752e-19)
(0.000773396 4.99619e-05 1.14894e-18)
(0.000804362 7.57196e-05 5.84619e-19)
(4.45808e-05 -6.48107e-06 -5.60615e-24)
(1.58709e-05 -3.4901e-05 3.52015e-19)
(2.38366e-05 -2.33019e-06 -4.64012e-20)
(3.34409e-05 -1.22516e-05 0)
(4.14813e-05 -1.27591e-05 1.13094e-18)
(0.00116747 0.000143359 1.79796e-19)
(1.9781e-05 -3.63455e-06 4.46944e-20)
(0.000823166 1.01491e-06 3.06288e-23)
(2.11303e-05 3.54993e-05 2.65914e-19)
(-1.88625e-05 -4.15484e-05 -8.53729e-19)
(0.000664265 -0.000175044 9.58717e-19)
(1.4871e-05 -4.06997e-06 4.5462e-20)
(0.000819947 2.7717e-05 -1.57353e-18)
(0.000831253 5.20931e-05 -6.90506e-19)
(9.2247e-06 -4.37024e-06 0)
(4.41563e-05 2.25716e-06 8.51496e-20)
(0.00135125 0.00450195 8.92726e-19)
(6.33713e-05 7.20817e-06 8.63252e-20)
(0.0008032 1.77238e-05 0)
(0.000399112 -0.000235499 6.76779e-19)
(0.000394315 0.000262058 5.11731e-21)
(0.000410686 2.2516e-05 -1.00334e-18)
(0.00634763 0.01094 -7.68678e-19)
(0.00622455 0.0107952 1.52875e-20)
(0.00561481 0.0103781 1.45591e-18)
(0.000804229 5.5279e-05 0)
(5.75249e-05 2.19599e-05 0)
(0.000323396 -2.08811e-05 3.62964e-23)
(5.16156e-05 4.41102e-06 -3.46307e-19)
(0.000811677 -6.34907e-06 0)
(0.00067798 2.77618e-05 3.1741e-19)
(0.000851075 3.62075e-05 2.20834e-18)
(0.000815136 4.24101e-05 -5.42682e-19)
(0.000799979 1.09104e-05 -3.15625e-19)
(0.0017136 0.00048686 5.42309e-19)
(0.00081621 3.81231e-05 -1.14386e-18)
(0.000842956 4.3275e-05 -5.22711e-19)
(6.41687e-05 -9.98635e-06 -1.73334e-19)
(0.000691917 0.00225454 0)
(0.0008474 5.28097e-05 0)
(0.000799222 3.48916e-05 -1.39167e-18)
(3.08799e-05 1.16402e-05 0)
(0.000295449 0.000258264 3.26733e-19)
(2.76084e-05 -1.42908e-05 0)
(3.00735e-05 -5.31031e-06 1.59402e-19)
(1.72328e-06 -2.87946e-05 -3.36507e-20)
(0.000809545 7.976e-05 2.46815e-19)
(3.56899e-05 6.85135e-06 0)
(0.000817619 5.67219e-05 4.47042e-19)
(0.000785871 0.000298129 2.1064e-19)
(0.000958484 7.17338e-05 -3.97481e-20)
(3.54565e-05 1.71641e-05 -4.51665e-20)
(2.27507e-06 -6.38772e-06 0)
(0.000448319 0.000207226 1.7012e-19)
(2.53195e-06 1.32888e-05 0)
(0.00081016 5.35098e-05 -6.08413e-19)
(0.000666868 -0.000109619 0)
(5.14023e-05 -6.57145e-06 -1.74403e-19)
(-3.00536e-08 -9.94154e-06 0)
(0.000840603 0.000245666 -3.41106e-19)
(1.16547e-06 -3.14392e-06 0)
(0.000438268 0.000316495 -1.37219e-23)
(0.000554626 0.00010462 0)
(0.000819564 4.60872e-05 -3.23308e-24)
(1.89026e-06 7.53828e-06 -4.21528e-20)
(0.000485979 -3.76853e-05 1.76268e-18)
(0.00101463 7.62068e-05 4.15661e-20)
(0.000764289 4.87664e-05 6.41809e-22)
(0.000752082 0.000661328 2.69396e-19)
(6.80665e-06 3.38692e-05 0)
(-8.30888e-06 -1.42462e-06 -3.12165e-19)
(-3.59815e-05 1.81393e-05 -1.10084e-18)
(5.40332e-06 5.78622e-05 -5.96115e-19)
(0.000585464 -3.27222e-05 0)
(9.51662e-06 8.04263e-05 0)
(0.000823921 3.87636e-05 2.18045e-18)
(0.000807411 4.45576e-05 1.53364e-18)
(0.000466218 -0.00012926 0)
(3.79232e-05 0.000200819 -8.94982e-19)
(2.0761e-06 0.000142345 4.96818e-19)
(5.4068e-05 0.000381188 6.2506e-19)
(0.000315031 5.49941e-05 -9.36864e-19)
(0.000801794 2.00172e-05 1.37358e-19)
(0.000253578 -8.96754e-05 5.3098e-19)
(4.05878e-06 2.06336e-05 0)
(1.81141e-05 0.000259741 -1.09391e-18)
(0.000329555 0.000314586 -1.61649e-19)
(-2.39016e-06 -1.34335e-06 1.46528e-19)
(0.000672025 0.000799683 0)
(0.000378797 0.000376155 5.74215e-20)
(0.000830598 3.60612e-05 1.07015e-18)
(0.000799724 1.86423e-06 -2.72556e-18)
(3.49218e-06 3.08115e-05 0)
(0.000657143 -4.46237e-05 -1.1226e-19)
(0.000325974 -0.000168791 1.24255e-18)
(0.00261286 0.000811129 -3.36532e-19)
(9.25075e-06 0.00010906 -6.13081e-19)
(1.00525e-05 0.00013737 1.61953e-18)
(0.000634092 2.6838e-05 -3.89624e-20)
(4.81335e-05 -1.78185e-05 -7.49829e-19)
(0.000815049 4.34055e-05 -3.9157e-19)
(0.000686358 2.8587e-05 -4.10491e-20)
(3.02299e-05 0.00030776 -5.97042e-19)
(0.000516165 4.34007e-05 -4.93726e-19)
(3.68417e-05 -4.93567e-06 1.56082e-19)
(0.000845323 4.6896e-05 -1.08153e-18)
(0.00152419 0.000237209 -1.13637e-18)
(5.53424e-06 4.62793e-05 4.96216e-19)
(0.000814921 3.92015e-05 -5.03284e-19)
(0.000929095 0.000560121 -7.84788e-20)
(0.000151144 0.00077446 0)
(0.00061498 6.00735e-05 0)
(0.000280207 3.00232e-05 -1.60878e-18)
(5.6084e-05 4.80172e-05 -1.37351e-18)
(2.46977e-05 1.56322e-05 0)
(0.00424801 0.00740157 -1.01969e-20)
(0.00422609 0.00737306 3.1673e-20)
(0.00442826 0.00757578 -4.99664e-21)
(0.00420516 0.00773326 0)
(0.00419759 0.00759917 5.77278e-19)
(0.00424496 0.00740258 -9.20522e-20)
(0.00420903 0.00804056 4.8453e-19)
(0.00429067 0.00742409 0)
(0.00420759 0.00853314 6.16839e-19)
(0.00432719 0.00745276 2.23967e-19)
(0.000842277 3.03962e-05 -1.37122e-18)
(0.000792595 6.69917e-05 0)
(0.000208492 2.79962e-05 1.27654e-19)
(4.10915e-05 1.02214e-05 8.71463e-20)
(6.90035e-05 3.34087e-05 6.79731e-19)
(9.45593e-05 2.66941e-05 -3.41523e-19)
(8.45054e-05 -6.60471e-06 0)
(3.77235e-05 1.5976e-06 8.18005e-20)
(0.000208973 0.00011229 0)
(0.000156106 1.82754e-05 -5.24123e-20)
(0.000351465 0.000208868 -5.09076e-21)
(4.82273e-05 3.38544e-05 -4.37466e-19)
(7.9168e-05 1.49431e-05 -8.52105e-20)
(8.21829e-05 4.86384e-05 1.3114e-21)
(0.000265286 0.000355029 -6.65955e-19)
(0.000111857 0.000988428 0)
(3.63305e-05 4.34486e-05 3.42916e-19)
(0.000200111 0.00173624 0)
(0.00020988 0.000239807 7.04416e-19)
(2.60785e-05 -2.58985e-06 1.11445e-19)
(0.000501576 0.000155841 -1.72236e-19)
(0.000786067 3.51974e-05 -1.92275e-18)
(3.2235e-05 -2.03985e-06 5.06432e-24)
(0.000134664 5.23499e-06 2.245e-19)
(0.000248102 7.03507e-05 -8.98971e-20)
(0.000885743 0.000693956 3.34826e-19)
(0.000723773 0.00163462 -9.23318e-21)
(0.000392318 0.00141685 -9.37923e-21)
(0.00103533 0.000551859 0)
(8.17862e-05 -2.44903e-05 1.11824e-18)
(0.000100903 -1.73597e-06 -4.42737e-20)
(0.000479858 -0.000252133 -1.1361e-18)
(0.000829129 4.42172e-05 0)
(0.000170003 -2.87823e-05 3.63169e-19)
(0.000308945 0.00129572 0)
(0.00109061 0.000772132 -7.2994e-20)
(0.000826058 2.44348e-05 -1.86467e-19)
(5.79997e-05 -2.56314e-05 -2.99843e-19)
(0.000847096 0.000313766 -2.07958e-20)
(3.73975e-05 -2.08697e-05 -5.99211e-19)
(0.000229294 0.000157895 8.63573e-20)
(0.000233365 0.000299364 -3.44891e-19)
(0.00090479 0.000256449 0)
(0.000832699 6.046e-05 0)
(0.000269549 0.000112467 1.76782e-19)
(0.000230175 -3.18474e-05 1.10901e-23)
(0.000185864 0.000191176 0)
(0.000309338 0.000640766 -5.55484e-21)
(0.000371944 -4.85399e-05 0)
(0.000383906 0.000598358 0)
(0.000100923 6.69413e-05 -1.34614e-21)
(0.000809937 2.94007e-05 -9.5406e-19)
(0.000804982 1.62885e-05 7.86717e-19)
(0.000119635 3.98974e-05 -1.49794e-19)
(0.000982075 0.000146716 8.49961e-20)
(0.000842145 3.45637e-05 3.33409e-19)
(0.000824489 3.91372e-05 -2.93986e-19)
(0.00103897 0.000422935 0)
(0.000456568 0.000100569 6.24166e-19)
(0.000923619 0.000326088 2.09049e-20)
(0.000602135 0.0001479 0)
(0.000278684 0.000439529 4.09512e-19)
(0.00026456 0.000201804 -8.4388e-20)
(0.00111134 0.000387604 -7.81751e-19)
(0.0006512 0.000102638 -1.7921e-19)
(0.000829153 7.99583e-05 -7.45708e-21)
(0.000847574 1.91339e-05 9.38595e-20)
(3.64102e-05 -8.31054e-05 -1.98054e-18)
(0.000749376 0.000379239 2.19153e-19)
(0.000697493 7.19585e-05 2.30548e-20)
(0.0007227 0.000278433 1.63302e-23)
(0.000745546 0.000462941 -4.09514e-19)
(0.000858086 9.6124e-06 9.06627e-20)
(6.5435e-05 6.62431e-05 0)
(0.000666881 0.000426583 -4.65747e-20)
(0.000180189 7.45819e-05 0)
(0.000374692 0.000500313 -2.64755e-19)
(0.000315204 0.00014949 0)
(0.000693535 0.000204928 3.55071e-19)
(0.000666744 0.000259324 -4.37068e-20)
(7.75959e-05 9.17672e-05 6.18897e-19)
(0.000893242 9.79014e-05 -1.6365e-18)
(4.80502e-05 1.49486e-05 2.57079e-19)
(0.000906028 7.33134e-05 -1.68574e-18)
(0.000855568 9.19218e-05 1.63013e-19)
(0.000817778 3.96554e-05 1.93081e-18)
(0.000822782 3.11986e-05 -1.32647e-19)
(0.00075414 7.03138e-05 0)
(0.000804864 1.85839e-05 9.00479e-19)
(0.00097946 0.00024267 -4.26901e-19)
(0.000798567 0.000103863 -4.83522e-19)
(0.000787258 0.000239672 -8.80827e-20)
(0.000185085 -0.000207694 -2.07392e-18)
(0.000774795 8.53187e-05 8.87137e-19)
(0.000647448 0.000589463 0)
(3.87694e-05 -0.000123067 0)
(0.00123386 0.000480278 4.97142e-19)
(0.0005131 -4.94341e-05 -3.271e-18)
(0.00135976 0.000422061 5.76205e-19)
(0.00125801 0.000723098 -6.38838e-20)
(0.000818356 3.60408e-05 -2.12651e-19)
(0.000847161 6.56436e-05 -1.4272e-18)
(0.000813005 2.65936e-05 1.58427e-18)
(0.000813052 1.81747e-05 9.76509e-20)
(0.000680429 0.000352689 -4.40228e-20)
(9.69954e-05 0.000106763 1.13095e-23)
(0.000774589 -2.22564e-05 2.64803e-19)
(0.000201557 -0.00024808 -7.33734e-19)
(0.000651533 0.000180317 0)
(0.00073695 5.21143e-05 9.89912e-20)
(0.000734747 1.10521e-05 -3.80629e-19)
(0.000402665 0.000156806 3.93209e-20)
(0.000816916 0.000510529 -1.65413e-19)
(0.000141803 5.64393e-05 4.78775e-25)
(0.000826769 0.000411662 0)
(0.000996592 0.00031612 4.15582e-20)
(0.000775649 -5.0024e-05 -6.15687e-19)
(0.000361308 8.38269e-05 4.97647e-19)
(0.000908467 0.000427012 0)
(4.12832e-05 2.40361e-05 1.33652e-19)
(0.000502514 0.000257181 2.13867e-19)
(0.000567115 -0.000177154 -7.09037e-19)
(7.16845e-05 -0.000177439 -1.05601e-18)
(0.000827414 4.48085e-05 -4.86454e-19)
(0.000751912 -4.74755e-05 -1.94689e-19)
(0.000557068 0.000727098 -1.17382e-18)
(0.000858705 4.33088e-05 -6.73007e-20)
(0.000532061 -3.33756e-06 1.28309e-18)
(0.000727417 9.92234e-05 2.27672e-20)
(0.000552817 0.000200073 -1.6562e-19)
(1.88857e-05 -1.65189e-05 -8.75464e-20)
(0.000136661 -7.19996e-05 2.40486e-18)
(9.09581e-06 4.28144e-07 -1.94779e-19)
(0.000851756 0.00012131 3.6358e-19)
(0.000692712 0.000134199 0)
(0.000157661 -0.000127709 -1.04778e-18)
(0.000103168 -3.4022e-05 3.12624e-19)
(8.02416e-05 -4.47391e-05 9.31583e-24)
(0.000819476 0.000107172 -3.1912e-19)
(0.000137491 -3.18984e-05 0)
(0.000606063 0.000235184 0)
(0.000111343 0.000316399 -3.62726e-19)
(0.00087467 0.000102314 2.10705e-18)
(7.37848e-06 5.00592e-07 0)
(0.000895004 4.95243e-05 0)
(2.92575e-05 -2.35428e-05 0)
(0.000815132 4.91082e-05 -4.46603e-21)
(0.000776644 -1.68731e-05 0)
(0.00426112 0.00740835 8.07239e-20)
(0.00436306 0.00748878 1.43655e-19)
(0.000841628 -2.62269e-05 0)
(0.000805159 -2.2599e-05 8.11061e-19)
(0.000150487 0.00010793 1.49152e-19)
(0.000868814 6.56742e-05 8.08333e-19)
(0.000124229 8.57352e-05 2.343e-20)
(0.000801453 -1.15804e-05 6.2334e-19)
(2.75494e-05 6.65869e-06 0)
(1.81093e-05 -9.75237e-06 -4.48277e-20)
(0.000913398 4.51675e-05 -4.86324e-19)
(1.88624e-05 -2.50453e-05 -6.69501e-19)
(0.000779282 0.000130302 -4.23041e-20)
(0.000169848 0.000145538 -1.88029e-19)
(0.000812421 3.31284e-05 0)
(0.00468252 0.0081535 9.00728e-22)
(0.000201048 0.000791535 3.3334e-19)
(8.31641e-05 -7.32629e-05 -9.14114e-19)
(4.18025e-05 -3.38747e-05 -1.16829e-18)
(0.000563016 1.27804e-05 1.8937e-20)
(0.000589313 0.000400982 0)
(0.000429708 0.000446267 -2.56239e-19)
(5.26335e-05 -6.60222e-05 1.18325e-18)
(0.00052906 -2.91363e-06 7.66925e-20)
(3.28326e-05 3.39672e-07 4.06909e-19)
(0.000737887 -3.47008e-05 1.17102e-18)
(0.000812501 3.18391e-05 -6.06065e-19)
(3.75536e-05 -5.20642e-05 1.70883e-18)
(0.000840401 -5.2053e-05 -6.68044e-24)
(0.00054045 5.50051e-06 -3.74182e-20)
(0.00088417 7.18293e-05 0)
(0.000848347 5.9469e-05 0)
(0.00591424 0.00724392 2.60048e-19)
(8.99896e-06 -3.25617e-06 -1.19551e-19)
(7.32772e-05 -0.000123134 7.72748e-19)
(0.000748556 0.000113788 -6.96106e-19)
(1.1364e-05 3.76142e-07 2.01478e-19)
(0.000672464 -3.41806e-05 -7.23442e-19)
(0.000764867 3.68309e-05 1.55729e-18)
(0.000724588 0.000155044 -3.5528e-19)
(0.000807108 -1.08243e-05 3.6061e-19)
(5.35116e-05 -3.83501e-05 1.11548e-18)
(0.000802251 6.7236e-06 -3.22447e-19)
(0.000880962 3.0959e-05 0)
(0.000558482 0.00029928 4.20845e-20)
(0.000873159 4.62778e-05 -9.47452e-19)
(9.85816e-06 3.03321e-06 9.11285e-19)
(0.000866361 3.63146e-05 9.65809e-19)
(0.000866545 3.5581e-05 -9.63695e-19)
(0.000774518 6.14303e-06 -5.68887e-19)
(0.000569753 -8.94161e-05 -5.25382e-19)
(0.0043301 0.00745494 2.47594e-19)
(0.00422173 0.00752803 -2.7891e-19)
(0.00422003 0.00758568 2.66802e-19)
(0.00425673 0.00741207 1.98032e-19)
(0.000845171 -4.14172e-05 1.44203e-19)
(0.00447701 0.0075155 0)
(0.00440444 0.00751942 -3.86973e-19)
(1.65272e-05 -1.80935e-07 -9.978e-19)
(0.00416968 0.00746818 -6.33807e-20)
(0.0041452 0.00743145 -2.21568e-19)
(0.0060293 0.0106047 0)
(0.00654023 0.0111866 3.71622e-20)
(0.00600923 0.0105744 0)
(0.00655593 0.0112102 1.30997e-19)
(0.00599673 0.0105985 2.69681e-19)
(0.00659262 0.0112271 1.24769e-20)
(0.00593567 0.010611 -7.76805e-19)
(0.0066229 0.0111461 8.17013e-21)
(0.00390347 0.00919684 -1.90793e-19)
(0.00418587 0.0074874 3.8754e-21)
(0.00423669 0.00755089 7.93775e-20)
(0.0041497 0.00743375 4.12143e-20)
(0.000903268 0.000198867 4.46527e-20)
(4.95999e-06 6.67322e-07 0)
(0.00073869 -8.82523e-05 0)
(0.000656955 5.93833e-05 0)
(0.00244837 0.00111975 4.23894e-21)
(0.000759381 -2.95907e-05 1.72496e-19)
(3.18215e-05 3.4171e-06 4.53855e-20)
(2.88811e-06 -1.75448e-05 1.65221e-18)
(0.000869676 -1.56728e-06 0)
(2.19637e-05 9.26352e-06 -1.91643e-19)
(0.000138971 0.000210381 0)
(7.41531e-06 -6.84134e-07 0)
(5.40165e-06 -6.43097e-07 0)
(0.000846064 0.000152801 1.13729e-20)
(0.00081094 -1.71292e-05 1.79548e-19)
(3.91859e-05 0.000247561 -6.13971e-24)
(0.0001558 0.000261864 -1.84128e-18)
(0.000618975 0.000324658 -8.56667e-20)
(0.000908844 0.000118278 6.01327e-19)
(0.000560258 -0.000116873 6.75407e-19)
(0.000359066 0.0011197 0)
(0.000485669 0.000575217 2.71441e-18)
(8.70194e-05 0.000132372 -1.80244e-18)
(1.04373e-05 -4.23893e-07 0)
(0.00082325 -6.49146e-05 3.64016e-20)
(1.22316e-05 2.81322e-05 1.64379e-18)
(0.000890117 3.69156e-05 2.70992e-19)
(-2.92087e-05 0.000106763 3.80706e-18)
(0.000922001 4.32038e-05 -2.68858e-19)
(0.00132775 0.000160538 7.4735e-19)
(2.44086e-05 -8.71831e-06 8.25339e-20)
(2.62973e-05 1.3678e-06 -8.58729e-19)
(5.05304e-05 0.000128662 0)
(0.000926394 9.31726e-05 5.98176e-19)
(0.000503894 0.000364846 2.37059e-19)
(0.000587803 1.69398e-05 -3.88864e-20)
(0.000795989 1.42058e-05 2.57059e-19)
(0.000723219 -0.000113624 0)
(0.00632037 0.0108953 -1.68167e-19)
(0.00637872 0.0109727 4.05938e-19)
(0.00616012 0.0107297 -6.1852e-19)
(0.00650125 0.0111318 -8.10083e-20)
(3.0032e-05 0.000106704 8.00193e-19)
(0.000934965 6.26323e-05 1.43897e-22)
(0.00641133 0.0110053 -3.86559e-19)
(0.00628143 0.0108451 5.48413e-19)
(0.00608017 0.0106715 -4.16818e-19)
(0.00652176 0.0111643 -6.81669e-20)
(7.78192e-05 0.00048085 -2.01767e-20)
(2.8352e-05 -0.000178796 -7.92739e-19)
(0.000620965 -1.78808e-05 -7.67245e-19)
(0.000737692 0.000219323 0)
(0.000800294 3.07092e-07 0)
(0.000191986 0.000381283 3.36188e-19)
(0.000606844 0.000511554 -5.41676e-19)
(3.00512e-06 -5.4358e-07 1.78315e-19)
(0.00020145 0.000464203 -7.38162e-19)
(0.00102805 0.000981237 -1.12661e-19)
(0.000762772 0.000167672 0)
(0.000802674 0.000184325 1.30965e-19)
(0.00634693 0.00588408 1.13223e-18)
(0.000733738 0.00113005 8.26441e-20)
(3.28672e-05 3.13705e-05 -7.4437e-20)
(0.00080928 1.20188e-05 0)
(0.000866874 1.89634e-05 -3.56767e-20)
(2.51533e-05 1.35256e-06 -1.96665e-19)
(2.21495e-05 2.61756e-06 1.92922e-19)
(0.000835218 1.01092e-05 5.3697e-19)
(0.000995804 0.000115722 6.57775e-19)
(0.000522425 5.23243e-05 0)
(0.000219663 -0.000239888 -4.00092e-19)
(0.000924949 0.000144039 3.89406e-19)
(-2.51892e-06 -3.54729e-05 2.02926e-19)
(0.00145611 0.000447958 -2.57958e-18)
(0.000544052 -1.71692e-05 0)
(0.000808001 0.000141852 3.75305e-19)
(9.75581e-05 0.00038029 0)
(0.0011894 0.00816115 4.62042e-19)
(0.000501322 0.00049531 -1.22414e-18)
(0.000542763 0.00101854 -1.83698e-19)
(0.000893702 1.00016e-05 -1.45998e-19)
(9.1655e-06 1.9755e-05 0)
(0.000969241 7.96669e-05 6.1131e-19)
(0.00410581 0.00739469 8.14589e-20)
(0.00417052 0.00747272 4.73258e-20)
(0.00450074 0.00751821 4.54128e-19)
(0.00444598 0.00754404 -3.29051e-19)
(0.00647517 0.0111088 8.10855e-20)
(0.00391464 0.00714579 -9.43843e-22)
(0.00550707 0.00780084 -5.64802e-19)
(0.00409764 0.00737128 5.21948e-21)
(0.00518866 0.00786077 5.11738e-19)
(0.00407939 0.00733962 -4.87542e-20)
(0.00495409 0.00772032 0)
(0.00408456 0.00736387 -8.57016e-20)
(0.00474302 0.0075912 4.92568e-19)
(0.00409781 0.00737548 8.75505e-20)
(0.00457579 0.00753075 0)
(0.00428464 0.00742254 1.39784e-19)
(0.0042382 0.00759719 5.80365e-19)
(0.00446847 0.00752954 -5.54322e-19)
(0.00438869 0.00750686 3.71398e-19)
(0.00422684 0.00752396 3.22923e-19)
(0.00643051 0.011042 -4.97663e-21)
(0.00411724 0.0074008 3.1171e-20)
(0.00645865 0.0110719 0)
(1.78335e-05 3.59254e-06 -1.89781e-19)
(0.00200342 0.006548 2.28144e-19)
(0.000838569 -6.37707e-05 1.09522e-19)
(0.000849635 -3.60766e-06 0)
(2.87838e-07 2.9376e-08 -3.98942e-19)
(-4.29915e-05 -4.8951e-05 6.91021e-19)
(2.21e-05 4.84364e-05 2.08821e-18)
(0.000846277 0.00019146 -9.00272e-20)
(0.000801828 8.39366e-06 7.06094e-19)
(-5.0324e-07 6.84655e-07 3.09856e-19)
(9.77863e-06 -2.36838e-05 -1.84479e-18)
(0.00076333 2.64323e-05 1.63086e-19)
(0.00087833 0.000127432 -3.07849e-20)
(0.000801166 -6.44519e-06 1.48067e-19)
(0.000442718 0.000677864 0)
(-1.37384e-05 -0.000120647 1.15076e-18)
(0.00088118 -6.17098e-06 1.52468e-19)
(1.64927e-05 1.90806e-05 0)
(0.000121691 0.000550031 -6.31083e-19)
(0.000616591 0.000581194 1.3172e-18)
(0.000339948 0.000758055 0)
(0.000802143 -1.33514e-05 0)
(0.000801885 3.19141e-06 1.17678e-18)
(1.34252e-05 4.11281e-05 -3.51359e-18)
(1.21287e-05 4.62631e-06 3.73468e-19)
(0.000116441 0.000130823 0)
(2.71901e-05 -3.64845e-05 0)
(5.69796e-05 0.000101609 2.0092e-19)
(0.000946422 0.000190387 3.50276e-19)
(0.000802648 1.60581e-05 -1.37749e-18)
(1.91231e-05 2.70254e-05 0)
(0.00039178 8.17242e-07 -6.04664e-20)
(0.00079882 3.48113e-05 -1.5629e-19)
(0.000854188 5.52205e-05 1.06528e-18)
(0.000249647 0.000543018 6.32033e-19)
(0.000888007 0.000159242 0)
(9.80641e-06 -1.65248e-05 5.38397e-19)
(6.58494e-07 -4.07511e-07 -3.19827e-19)
(0.000927969 3.63843e-05 0)
(0.00105076 0.00227274 0)
(0.000890057 5.5629e-06 0)
(0.00101165 0.000210086 4.26981e-19)
(0.000819328 -3.72284e-05 -2.84152e-19)
(0.000948749 0.000118274 -6.84463e-19)
(0.000801304 3.85396e-06 0)
(3.87232e-05 5.91491e-05 -1.71498e-19)
(0.000174772 0.000318864 1.08078e-18)
(0.000801639 1.44026e-05 -2.58875e-23)
(0.00111521 0.00020815 -6.683e-19)
(0.0010865 0.000130463 0)
(1.44903e-06 2.52781e-06 2.50923e-19)
(1.14036e-05 -1.0361e-05 -1.94233e-19)
(0.000545518 5.17747e-05 6.94758e-21)
(-1.61979e-05 -4.52643e-05 0)
(0.00108254 0.000258302 9.49497e-19)
(0.00502893 0.00974832 -2.82831e-19)
(0.00312177 0.00961642 1.27235e-18)
(-1.71283e-07 -8.21196e-05 -1.91244e-19)
(2.43754e-05 -6.61853e-05 1.85857e-18)
(0.00119511 0.000262131 1.67275e-19)
(0.0013325 0.0010747 2.34014e-19)
(0.000810455 4.37756e-06 -7.37064e-19)
(0.000203911 0.000946427 -2.38179e-19)
(0.000820009 0.000946747 -2.18514e-19)
(0.000800455 -1.81703e-06 0)
(8.12353e-05 0.000602757 0)
(9.3898e-05 0.000272158 -3.35575e-23)
(0.000721659 -4.88503e-05 -1.66943e-23)
(0.000828646 6.92506e-05 1.52543e-19)
(0.00263444 0.0020692 -1.23114e-18)
(0.00176111 0.00923796 -1.17182e-19)
(0.000833203 7.77177e-05 4.91756e-19)
(0.00631539 0.00405448 -1.76268e-19)
(0.0067208 0.0115568 -1.3667e-20)
(0.0047339 0.00784352 4.93794e-21)
(0.00080677 1.40081e-05 -2.18985e-18)
(0.000845566 -1.90375e-06 8.6784e-24)
(3.2913e-06 -3.95276e-06 -3.47868e-19)
(4.39812e-05 7.85265e-05 -3.49142e-19)
(6.00039e-05 0.000253761 8.75075e-19)
(7.47145e-06 1.19753e-05 4.90206e-19)
(8.9959e-05 0.000217274 3.69638e-19)
(0.00081808 1.31285e-05 0)
(0.00534832 0.00949242 1.94861e-20)
(0.00155153 0.000642371 -2.61109e-20)
(0.000818771 4.20232e-05 3.60029e-19)
(3.55643e-06 -6.41662e-05 0)
(0.00184968 0.000749862 5.45849e-19)
(5.94503e-06 4.774e-06 -2.70045e-19)
(2.84661e-05 2.27564e-05 9.71426e-20)
(0.00133728 0.00139931 6.36496e-19)
(0.000740788 4.97874e-05 1.83031e-19)
(2.31164e-07 -2.58413e-07 -1.7013e-19)
(0.00206708 0.00156421 -1.05551e-18)
(0.000127092 0.000165756 -8.1849e-19)
(0.00392005 0.00848931 -1.09076e-18)
(2.04551e-06 6.34175e-07 8.81072e-20)
(8.30264e-05 -1.30088e-05 -1.25807e-18)
(2.64139e-05 -5.02865e-05 4.0547e-20)
(0.00153596 0.00098999 0)
(0.0010457 0.000144778 -3.96983e-22)
(0.000459037 0.000843778 -4.01962e-20)
(0.000803805 2.74837e-05 -2.33982e-19)
(8.6769e-05 0.000172414 7.3581e-19)
(1.17109e-05 -4.69971e-05 4.03817e-19)
(1.47003e-05 1.16149e-05 -9.46719e-20)
(2.66818e-05 7.98316e-05 -3.20166e-19)
(0.000214967 -0.000127131 -5.45732e-19)
(0.00325266 0.00346981 2.88186e-21)
)
;

boundaryField
{
    back
    {
        type            empty;
    }
    ingreso
    {
        type            fixedValue;
        value           uniform (0.0008 0 0);
    }
    salida
    {
        type            zeroGradient;
    }
    front
    {
        type            empty;
    }
    defaultFaces
    {
        type            noSlip;
    }
}


// ************************************************************************* //
