/*--------------------------------*- C++ -*----------------------------------*\
  =========                 |
  \\      /  F ield         | OpenFOAM: The Open Source CFD Toolbox
   \\    /   O peration     | Website:  https://openfoam.org
    \\  /    A nd           | Version:  7
     \\/     M anipulation  |
\*---------------------------------------------------------------------------*/
FoamFile
{
    version     2.0;
    format      ascii;
    class       volScalarField;
    location    "108";
    object      p;
}
// * * * * * * * * * * * * * * * * * * * * * * * * * * * * * * * * * * * * * //

dimensions      [0 2 -2 0 0 0 0];

internalField   nonuniform List<scalar> 
591
(
0.000123829
0.000123845
0.00012385
0.000123794
0.000123798
0.000123869
0.000123856
0.000123833
0.00011696
0.000123854
0.000124042
0.000122795
0.000123839
0.000119684
0.000123833
0.000123873
0.000123836
0.000123884
0.000121911
0.000123216
0.000123816
-3.52264e-06
0.000124035
0.000123817
0.00012399
0.00012384
0.000123958
0.00012395
0.000123854
0.000123864
0.00012401
0.000123983
0.000124004
0.000124003
0.000124005
0.000123328
0.000124
0.000123818
0.000124029
0.000123941
0.000123893
0.000123996
0.000123849
0.000123875
0.000123993
0.000124015
0.000119191
0.00012402
0.000123852
0.000123962
0.000123974
0.000124002
2.39485e-05
3.0595e-05
4.78415e-05
0.000123847
0.000124024
0.000124018
0.000124017
0.000123826
0.000123913
0.000123846
0.000123842
0.000123894
0.000122522
0.000123844
0.000123849
0.000124014
0.000120691
0.000123861
0.000123852
0.000124021
0.000124
0.000123998
0.000124004
0.000123979
0.000123821
0.000124017
0.000123823
0.000123763
0.000123594
0.000124022
0.000123981
0.00012397
0.00012403
0.000123835
0.000123917
0.000124012
0.000123974
0.000123727
0.000123986
0.000123943
0.000123952
0.000123826
0.000124028
0.000123983
0.000123527
0.000123426
0.000123602
0.000124035
0.000123941
0.000123875
0.000124041
0.00012379
0.000124042
0.000123846
0.000123842
0.000123983
0.000124036
0.000124039
0.000123933
0.000124014
0.00012386
0.000124015
0.000124032
0.000124022
0.000123977
0.000123964
0.000123539
0.000123944
0.000123846
0.000123837
0.00012392
0.000123823
0.000123996
0.000120151
0.000124043
0.000124022
0.000123592
0.000124006
0.000123835
0.000123519
0.000123984
0.000123972
0.000124009
0.000123852
0.000122586
0.000124038
0.000123837
0.000123528
0.000123604
0.000123935
0.000124025
0.000124031
0.000124023
7.61941e-06
3.68096e-06
2.07368e-06
3.81658e-05
3.67051e-05
5.66385e-06
3.8319e-05
1.57437e-05
3.73031e-05
1.78107e-05
0.000123846
0.000123837
0.000124031
0.000124019
0.000124028
0.000124027
0.000124018
0.000124013
0.000124032
0.000124028
0.000123997
0.000124028
0.000124023
0.000124031
0.000123979
0.000123352
0.00012403
0.000122089
0.000124019
0.000124008
0.000123964
0.000123854
0.000124008
0.000124026
0.000124028
0.000123448
0.000122434
0.000123008
0.000123397
0.000124013
0.000124021
0.00012391
0.000123815
0.000124017
0.000122929
0.000123255
0.000123814
0.000124006
0.000123705
0.000124
0.000124027
0.000124003
0.000123672
0.000123806
0.000124024
0.000124026
0.000124029
0.000123832
0.000124007
0.000123828
0.000124034
0.000123839
0.000123839
0.000124031
0.000123629
0.000123805
0.00012385
0.00012349
0.000123985
0.000123636
0.000123925
0.000123946
0.000124017
0.000123402
0.000123911
0.000123799
0.000123798
0.000123979
0.000123747
0.000123894
0.000123813
0.000123728
0.00012379
0.000124034
0.000123793
0.000124034
0.000123891
0.000124015
0.000123855
0.000123857
0.000124037
0.000123739
0.000124021
0.000123728
0.000123778
0.000123844
0.000123822
0.00012386
0.000123847
0.000123617
0.000123819
0.000123774
0.000123982
0.000123838
0.0001237
0.000123973
0.000123246
0.000123817
0.000123135
0.000123025
0.000123829
0.000123793
0.000123832
0.000123828
0.000123806
0.000124037
0.000123875
0.000123943
0.000123891
0.000123879
0.000123891
0.000123993
0.000123641
0.000124033
0.000123676
0.000123562
0.000123864
0.000124013
0.000123588
0.000124025
0.00012394
0.000123942
0.000123972
0.000123856
0.000123833
0.000123673
0.000123786
0.000123831
0.00012387
0.000123934
0.000123993
0.000124012
0.000124018
0.000123772
0.000123881
0.000124004
0.000124012
0.000124005
0.000123796
0.000124021
0.000123898
0.000124011
0.000123757
0.00012402
0.000123743
0.000123995
0.000123887
0.000123831
1.1644e-05
2.19162e-05
0.000123765
0.000123852
0.000124036
0.000123777
0.000124036
0.000123862
0.000124019
0.000123995
0.000123725
0.000123989
0.000123819
0.000124034
0.000123855
-2.09454e-07
0.000123736
0.000124
0.000123996
0.000123683
0.000123851
0.000123896
0.00012399
0.000123737
0.000124013
0.000123894
0.000123847
0.000123988
0.000123789
0.000123712
0.000123753
0.000123858
4.75e-05
0.000124007
0.000123985
0.000123844
0.000124015
0.000123921
0.000123866
0.00012385
0.000123833
0.000123999
0.000123862
0.000123763
0.000123902
0.000123769
0.000124013
0.000123776
0.000123841
0.000123873
0.000123954
1.98759e-05
2.7314e-05
3.43011e-05
9.64124e-06
0.000123817
3.30617e-05
2.602e-05
0.00012401
1.90765e-05
1.70322e-05
3.81899e-05
7.57815e-06
3.99409e-05
5.60676e-06
4.08344e-05
3.69058e-06
4.28162e-05
1.87791e-06
3.64159e-05
2.3198e-05
2.94486e-05
1.49944e-05
0.000123702
0.000124022
0.000123885
0.000123901
0.000120849
0.000123936
0.000124016
0.000123986
0.000123781
0.000124022
0.000124031
0.000124001
0.000123997
0.000123761
0.000123834
0.000124016
0.000124022
0.000123856
0.000123715
0.000123811
0.000123367
0.000123818
0.00012404
0.000124005
0.000123845
0.000124029
0.000123684
0.000123856
0.000123644
0.000122804
0.000123999
0.000124012
0.000124039
0.000123701
0.000123902
0.000123642
0.00012386
0.000123853
2.60554e-05
2.18809e-05
3.30409e-05
1.16201e-05
0.000124042
0.000123693
1.98227e-05
2.82627e-05
3.56075e-05
9.59e-06
0.000123868
0.000123938
0.00012381
0.000123816
0.000123835
0.000123984
0.000123773
0.000123995
0.00012395
0.000123061
0.000123818
0.000123785
5.93918e-05
0.000123188
0.000124027
0.000123829
0.000123716
0.000124016
0.000124019
0.000123808
0.000123607
0.000123843
0.000123881
0.000123692
0.000123971
0.000122855
0.000123763
0.000123792
0.000123993
0.000100858
0.000123839
0.000123448
0.000123752
0.000124027
0.000123655
1.08979e-05
2.11168e-05
3.53735e-05
2.82124e-05
1.36639e-05
5.66194e-08
4.20922e-05
2.69195e-06
4.01644e-05
4.76399e-06
3.94217e-05
6.81671e-06
3.86295e-05
8.85931e-06
3.72958e-05
1.36756e-05
3.17329e-05
3.05966e-05
2.39437e-05
2.5266e-05
1.77678e-05
1.29402e-05
1.57098e-05
0.000124021
0.000102365
0.000123816
0.000123741
0.000124025
0.000123915
0.000124032
0.000123746
0.000123875
0.00012399
0.000123985
0.000123996
0.000123744
0.00012384
0.000123762
0.000123947
0.000123773
0.000124026
0.000123908
0.000123736
0.000123745
0.00012385
0.000123844
0.000124032
0.000124023
0.000124038
0.00012399
0.000124039
0.00012366
0.00012384
0.000124027
0.000123786
0.000123919
0.000123849
0.000123903
0.000123727
0.000123989
0.000123988
0.000123303
0.000121332
0.00012303
0.000123574
0.000123839
0.000123669
0.000123852
0.000124033
0.000124006
0.000123846
0.00012346
0.000123437
0.000124026
0.000123992
0.000123866
0.000123955
0.000123501
5.83083e-05
4.0121e-05
0.000123959
0.000123979
0.000123343
0.000122706
0.000123826
0.000123589
0.000123335
0.000123835
0.000123764
0.000124025
0.000123868
0.000123903
0.000118962
5.44627e-05
0.000123872
8.12575e-05
1.86284e-06
-3.80203e-07
0.000123835
0.000123803
0.000123991
0.000124036
0.000124031
0.000124026
0.000124034
0.000123822
-2.30621e-06
0.00012278
0.000123865
0.000123967
0.000121967
0.000124024
0.000124025
0.000122251
0.000123943
0.000123992
0.000121649
0.000124036
7.63205e-05
0.000124023
0.000123764
0.000123984
0.000122332
0.000123547
0.000123628
0.000123873
0.000124038
0.000123976
0.000124024
0.000124038
0.000123827
0.000116131
)
;

boundaryField
{
    back
    {
        type            empty;
    }
    ingreso
    {
        type            zeroGradient;
    }
    salida
    {
        type            fixedValue;
        value           uniform 0;
    }
    front
    {
        type            empty;
    }
    defaultFaces
    {
        type            zeroGradient;
    }
}


// ************************************************************************* //
