/*--------------------------------*- C++ -*----------------------------------*\
  =========                 |
  \\      /  F ield         | OpenFOAM: The Open Source CFD Toolbox
   \\    /   O peration     | Website:  https://openfoam.org
    \\  /    A nd           | Version:  7
     \\/     M anipulation  |
\*---------------------------------------------------------------------------*/
FoamFile
{
    version     2.0;
    format      ascii;
    class       surfaceScalarField;
    location    "108";
    object      phi;
}
// * * * * * * * * * * * * * * * * * * * * * * * * * * * * * * * * * * * * * //

dimensions      [0 3 -1 0 0 0 0];

internalField   nonuniform List<scalar> 
1111
(
7.14759e-09
1.28694e-08
-1.60608e-08
-3.95621e-09
7.07724e-09
-1.17696e-08
1.184e-08
-1.47326e-08
5.87748e-09
8.75624e-09
9.88993e-11
9.91972e-10
-1.15196e-09
-1.43965e-08
1.45565e-08
-1.43636e-08
1.41885e-08
1.16705e-09
-1.60835e-09
1.49158e-08
2.12107e-09
-2.56196e-09
9.30618e-09
-9.20656e-09
2.46234e-09
-6.72409e-09
-1.26106e-08
1.25958e-08
6.73885e-09
-5.01813e-08
-2.61121e-08
7.62934e-08
-8.09231e-09
7.7306e-09
7.43895e-09
3.23387e-09
3.79842e-10
-3.31176e-09
-3.01955e-10
1.5873e-08
-1.62722e-08
-2.32706e-08
2.36699e-08
-9.66688e-09
-7.90076e-09
8.80278e-09
8.76486e-09
-3.55952e-08
1.77362e-08
-3.23811e-08
5.02401e-08
9.49195e-09
-1.96042e-09
-1.42556e-08
-2.75525e-10
1.27295e-09
-2.60882e-09
1.61139e-09
-3.96936e-09
1.32904e-08
1.97379e-09
-1.12948e-08
8.80842e-09
-2.69697e-09
-1.50602e-08
8.94877e-09
3.71614e-08
-2.98305e-08
-7.33098e-09
-1.94174e-08
2.79676e-10
1.72288e-08
1.90893e-09
-1.08292e-09
4.23526e-09
-1.78352e-08
1.46828e-08
-6.12281e-08
-3.96128e-09
6.51894e-08
1.35197e-10
-1.093e-09
-3.21828e-10
1.27963e-09
-1.80688e-09
-1.36396e-08
-6.04732e-11
-2.06575e-10
1.47431e-10
1.19618e-10
-1.04134e-08
-8.6513e-09
1.32479e-08
5.81681e-09
6.84019e-10
-2.13824e-09
-8.21407e-09
9.6683e-09
8.82206e-09
7.33877e-10
-9.8929e-09
3.36968e-10
-2.8693e-09
-8.10714e-09
1.11806e-08
-2.04204e-10
1.14142e-08
-1.07647e-09
-1.52937e-09
-7.49272e-10
7.60628e-10
-3.37186e-11
2.23623e-11
-3.1631e-11
6.1658e-10
1.47574e-10
-7.32523e-10
-3.77037e-10
-4.04402e-11
4.08148e-10
9.32914e-12
-6.48851e-11
-7.04006e-10
1.16571e-10
6.5232e-10
-1.17934e-10
-6.96223e-10
1.01973e-09
-1.83675e-08
-2.06957e-09
-3.02036e-10
3.51277e-11
-1.10128e-10
1.33786e-08
-1.32469e-08
4.10362e-09
-3.31883e-10
5.15948e-10
3.00122e-10
-4.84186e-10
7.63197e-11
-1.07788e-09
9.5199e-10
4.9575e-11
-1.82691e-09
1.06969e-08
-1.14319e-08
-2.08085e-10
-1.32181e-10
3.82294e-11
-8.70788e-09
1.06355e-08
-1.00199e-08
1.22891e-08
-1.71353e-08
4.50919e-09
3.36979e-10
4.19541e-11
-1.26301e-10
-1.23738e-10
1.26387e-10
7.10464e-10
-7.62222e-11
-5.95073e-08
7.42296e-08
-1.47223e-08
9.65497e-10
-1.83879e-10
-1.06326e-09
2.81639e-10
1.13831e-09
1.03062e-08
-1.37128e-08
2.26831e-09
-1.93649e-09
7.90636e-09
-8.93715e-09
2.96727e-09
-6.79516e-09
5.55629e-09
5.7334e-09
-4.49453e-09
-7.88899e-09
-1.45612e-09
1.56522e-09
7.77989e-09
-1.8063e-10
-9.09138e-08
9.12993e-08
-2.04847e-10
-2.55926e-10
-8.97487e-08
9.01584e-08
-1.5379e-10
8.30786e-08
-1.49194e-09
1.10201e-10
-8.16969e-08
-2.73123e-09
-5.87144e-10
5.71058e-10
7.86742e-10
-3.92303e-10
3.88399e-09
-8.48099e-10
3.56694e-09
-6.60283e-09
-8.7471e-10
8.17218e-10
-1.49149e-08
6.57173e-09
1.00078e-08
1.07749e-09
-1.07932e-08
-2.92136e-10
-6.04607e-09
1.36267e-08
8.96677e-10
-8.47734e-09
1.43916e-08
-4.60364e-09
3.83636e-09
-1.36243e-08
1.53865e-08
1.67192e-09
-1.62964e-09
-1.9016e-10
-2.00759e-08
-7.43248e-09
2.76985e-08
1.45776e-08
-8.89391e-09
-1.83905e-09
8.07408e-09
-1.22811e-08
5.53635e-11
-1.23744e-11
-1.10625e-09
-3.61034e-08
-2.34038e-08
8.36772e-09
3.20063e-10
3.60135e-09
-6.96429e-09
1.13243e-08
6.2754e-09
-5.38031e-10
2.76213e-10
4.34506e-10
-1.72689e-10
5.66651e-09
-4.83678e-09
3.69722e-09
-4.52695e-09
-3.64791e-10
-5.75519e-10
2.36304e-10
5.69564e-10
-4.93433e-10
4.47016e-11
-6.55008e-10
5.78675e-10
-1.82741e-08
2.38526e-09
1.60824e-09
1.42806e-08
1.82726e-10
-6.22874e-10
-9.78833e-11
-4.25003e-09
-1.52067e-08
1.18261e-09
5.61964e-09
1.21226e-08
-5.23967e-09
-1.25026e-08
1.63754e-08
7.54926e-10
-1.5837e-08
-1.29327e-09
-6.177e-10
3.98034e-10
4.95879e-10
-2.3093e-10
1.05425e-10
1.25505e-10
-7.51958e-09
-3.4725e-09
4.19692e-09
-1.71398e-10
2.75032e-10
-1.03633e-10
1.03797e-09
-1.57014e-08
-7.35549e-10
1.0158e-08
-1.12494e-08
-8.53065e-10
-1.86229e-10
1.29994e-08
4.47892e-09
-4.20892e-09
-1.32695e-08
4.49519e-11
7.23725e-09
-8.02806e-09
6.3471e-09
-1.56116e-09
-9.14367e-09
8.32192e-09
2.38292e-09
-1.96694e-09
7.02647e-10
-1.39424e-08
-8.83588e-11
-8.30394e-11
4.29545e-10
5.7866e-10
-8.8972e-09
7.84792e-10
1.72611e-08
-1.67053e-09
-1.18461e-08
1.32401e-08
-1.39391e-09
1.22906e-08
1.39137e-08
-1.54941e-08
-1.07101e-08
-4.4605e-10
8.48241e-10
-4.02191e-10
1.23104e-10
1.0161e-10
-2.24713e-10
-1.7793e-10
7.52585e-10
-5.74654e-10
1.23338e-09
-9.83438e-10
-2.49943e-10
-1.04943e-08
9.99986e-10
9.49432e-09
1.8382e-09
-6.04823e-10
8.98262e-09
-1.54253e-08
7.96572e-09
-9.47266e-09
6.73969e-11
3.57953e-09
-4.13063e-10
-2.21805e-09
2.28544e-09
-6.37057e-09
7.70752e-09
-1.33695e-09
-4.13082e-10
4.30293e-09
-5.86537e-12
1.7252e-08
-1.44769e-08
-1.63685e-09
-6.22409e-09
5.47231e-09
-9.63201e-11
-1.71018e-10
5.68655e-09
-5.65529e-09
-3.12584e-11
6.81518e-09
4.58473e-09
-6.31251e-11
-1.58905e-08
1.0489e-08
1.76921e-08
5.8351e-09
8.21733e-09
8.16278e-09
-6.84865e-09
1.45114e-09
-1.19454e-08
9.32332e-11
1.58904e-09
-1.30198e-08
2.70532e-09
-4.19877e-10
1.10614e-08
-1.03064e-08
-2.98011e-10
-6.72988e-10
-1.3832e-08
7.83956e-09
6.64359e-10
1.03234e-11
-8.87863e-09
4.96526e-09
-3.00206e-08
-1.25211e-08
-2.85757e-09
1.54674e-09
1.41315e-08
1.1108e-08
-1.08538e-08
-1.43857e-08
1.53574e-08
-3.18089e-09
-1.21765e-08
1.59805e-09
4.02286e-09
-8.69002e-10
-8.68625e-10
-7.88711e-10
1.07329e-09
5.84042e-10
-2.06233e-10
3.23233e-10
3.17506e-10
6.21464e-08
-6.21726e-08
2.62449e-11
6.20657e-08
-6.237e-08
3.0433e-10
8.37568e-10
6.47305e-08
-6.55579e-08
8.27338e-10
6.41224e-08
6.08134e-10
-2.23654e-10
-6.65033e-08
9.45445e-10
-6.20626e-08
6.19277e-08
1.34837e-10
1.3148e-09
-6.78181e-08
-6.22225e-08
1.59962e-10
1.27638e-08
-5.36535e-10
1.15663e-09
-3.69669e-09
3.0766e-09
2.7549e-10
-1.13742e-09
8.39851e-10
-4.83979e-10
1.34768e-09
-1.56427e-09
7.00566e-10
1.33976e-09
-1.40681e-09
5.46783e-11
-3.47374e-11
-3.46729e-09
2.63233e-09
-1.85619e-09
2.69114e-09
-3.09809e-10
-2.6817e-09
2.45497e-09
-3.4482e-09
-5.8831e-09
5.5713e-10
-5.59099e-10
1.10526e-09
1.08227e-09
-6.41739e-09
7.85478e-09
3.14735e-09
1.97195e-08
-4.36215e-09
-6.52249e-10
2.75566e-10
9.33813e-10
-1.00734e-08
-2.60301e-08
5.23489e-09
-4.1831e-09
-3.20376e-09
2.15196e-09
8.68234e-11
2.56801e-11
2.95644e-10
-2.47314e-09
3.27548e-09
9.03401e-09
6.6671e-10
-1.16274e-10
2.04134e-09
-2.23487e-09
1.7122e-09
1.47025e-08
1.33428e-08
-2.69217e-08
3.27213e-08
6.31052e-09
-2.28519e-08
-1.03803e-08
1.85618e-08
-1.80513e-08
1.05975e-08
-5.05977e-12
-2.56701e-10
-1.14505e-09
-1.62586e-09
-2.82199e-09
3.19102e-09
1.51983e-08
-6.42281e-10
-1.38534e-08
-9.06611e-10
-2.15965e-09
3.84567e-10
1.54817e-08
1.77826e-08
1.36927e-08
7.70272e-10
-1.74549e-09
-1.27175e-08
-1.40932e-09
5.97984e-09
1.26393e-08
-3.96417e-10
-9.72794e-10
-3.67907e-09
2.81862e-09
3.49278e-09
2.51471e-09
1.45867e-08
4.32961e-09
-1.44373e-08
1.81426e-08
-1.76174e-09
2.33606e-09
-3.28932e-09
1.92485e-09
-4.96689e-09
1.29204e-08
-1.19229e-08
-1.40567e-08
2.96814e-10
8.79303e-09
-1.76571e-09
1.47374e-09
1.39723e-09
-8.6665e-09
6.94194e-10
-4.54882e-09
-5.98643e-09
1.21696e-08
-1.48496e-08
9.76191e-10
1.68628e-09
-2.19988e-09
1.68798e-08
-1.63662e-08
-1.15437e-09
1.42048e-08
3.1297e-09
-4.50686e-09
-1.40482e-08
7.60696e-09
-1.74775e-08
-8.1808e-09
6.93163e-09
5.88426e-09
1.46822e-08
-1.0141e-08
2.99507e-09
9.52889e-09
9.80376e-09
3.88612e-09
-4.23792e-09
2.18341e-08
-1.93059e-08
5.07878e-09
-1.07122e-08
2.1692e-09
5.72013e-09
1.40307e-08
-3.99108e-10
1.28317e-08
-1.35869e-08
-1.94245e-09
1.56087e-09
-5.54789e-10
9.36374e-10
1.1106e-08
-6.36108e-09
7.37775e-09
-1.11068e-08
1.4721e-09
-4.74189e-09
1.15464e-08
-1.20442e-08
-7.59298e-09
9.26772e-09
9.43121e-09
1.298e-08
5.16973e-10
-1.3896e-08
1.38493e-09
7.70632e-10
-1.11853e-08
-6.72483e-09
1.03171e-08
-1.28818e-09
2.5086e-09
-9.01416e-09
4.76119e-09
-5.35006e-09
1.16796e-08
-3.46511e-09
-1.19032e-08
3.68864e-09
-4.45766e-09
1.13954e-08
1.75786e-09
1.10081e-09
-5.07381e-09
-1.79069e-08
1.05715e-08
1.24092e-08
7.00405e-10
-1.11107e-08
-1.00775e-08
1.61144e-08
1.26929e-08
2.88875e-09
-9.86148e-09
-1.33522e-08
-3.24615e-10
-1.27585e-08
1.68524e-10
-7.6904e-10
1.17812e-08
1.2557e-08
-8.23725e-09
1.67515e-08
-1.61081e-08
3.68622e-09
-5.17579e-10
1.81209e-09
1.29861e-08
-3.9404e-09
-1.27711e-08
-4.95833e-09
1.95889e-09
4.58848e-09
1.24148e-08
-7.23731e-09
1.01089e-09
-1.69418e-09
3.85986e-10
-6.3426e-10
5.97318e-09
2.64584e-08
2.88896e-11
-9.17303e-09
9.14415e-09
2.86685e-08
-2.24156e-08
2.21277e-08
1.98124e-08
-1.27202e-08
-2.72774e-09
1.51708e-08
1.43527e-10
-1.21469e-08
-4.68005e-10
-5.99996e-09
-1.82962e-09
2.14855e-09
1.43893e-09
-5.39734e-10
-1.11924e-08
1.1651e-08
8.10623e-11
2.9639e-09
-4.95496e-09
-1.1239e-08
1.0769e-08
-9.34016e-10
-1.09418e-08
-2.80507e-10
-1.14467e-08
-2.42397e-09
-1.21327e-08
2.14298e-09
7.88427e-09
5.15834e-09
-5.64487e-10
-1.18297e-08
1.18544e-08
5.39341e-10
-8.93561e-09
5.10446e-09
-1.59779e-09
2.09618e-09
-1.83147e-09
-1.30654e-08
-1.24083e-08
1.18727e-08
-1.01489e-08
-1.58291e-08
1.00875e-08
9.30899e-09
7.94931e-10
2.75363e-09
-1.19267e-08
1.15921e-08
1.66118e-09
3.86876e-09
2.59832e-10
-4.44999e-10
-1.79623e-10
-4.16494e-09
2.47429e-09
-4.69004e-10
1.40767e-10
-1.66201e-10
2.54345e-11
-2.72344e-09
1.31648e-08
2.25154e-09
2.52224e-09
3.27224e-10
-1.25858e-09
-6.23989e-10
-2.22719e-09
-1.76431e-10
1.31194e-08
1.01801e-08
-2.85911e-10
6.72164e-09
-1.25226e-09
-5.18348e-09
-9.86193e-09
-5.15619e-09
1.05795e-10
3.49718e-11
4.85813e-09
1.35519e-09
-1.7324e-08
-2.71084e-10
-7.00851e-10
-2.77863e-09
1.02985e-09
3.21477e-09
6.19491e-08
-8.56294e-11
-6.18635e-08
6.23736e-08
1.88928e-10
-6.25625e-08
-1.41023e-08
-3.47497e-10
1.44347e-08
1.51193e-11
3.22507e-09
-1.7106e-09
2.41855e-09
1.80064e-09
-4.5526e-09
-2.36696e-10
-4.76238e-10
3.86875e-10
-8.33264e-11
3.67258e-10
-2.39607e-10
1.97866e-08
1.0161e-09
-1.59446e-08
-9.95036e-11
-1.94506e-09
1.26353e-08
2.29583e-09
1.82037e-09
5.34401e-09
-2.14011e-09
-7.7232e-08
-2.41783e-08
-5.05122e-09
1.58464e-08
2.49517e-09
1.13196e-10
-2.80939e-09
-9.77443e-10
2.10863e-10
-2.06214e-10
-9.59582e-09
-3.71788e-10
9.96761e-09
-1.09295e-08
-6.56037e-09
1.0765e-08
-9.53726e-09
8.74043e-09
2.99179e-10
1.37488e-09
9.1612e-09
-9.14682e-09
-1.43806e-11
5.44445e-10
8.75281e-11
1.09206e-08
4.49945e-10
-6.56676e-10
-2.15878e-11
-1.42543e-08
-4.34618e-10
-1.38785e-08
1.27987e-08
-1.19286e-08
-6.60354e-08
6.49931e-08
1.0422e-09
1.91151e-10
-1.65471e-10
1.21309e-08
-1.72215e-10
6.01347e-12
-2.11201e-09
2.74997e-09
-3.40865e-09
-1.34667e-08
-1.62516e-09
2.57707e-09
-4.65278e-09
-1.41843e-08
1.51302e-09
5.53404e-09
9.75053e-09
-9.12211e-09
-1.93723e-10
2.15082e-11
-9.28664e-09
-1.34777e-08
1.51014e-10
-6.26943e-08
2.36358e-10
6.2458e-08
6.95364e-10
6.3427e-08
-2.23517e-10
-1.69311e-09
-1.45102e-08
1.07917e-10
-6.34091e-08
6.33012e-08
1.83386e-10
-6.29507e-08
6.27673e-08
2.93072e-10
6.17976e-08
1.50312e-10
-6.19479e-08
6.16288e-08
1.68762e-10
-8.78889e-08
8.8498e-08
-1.00862e-12
9.33926e-08
-9.30991e-08
-2.67244e-10
-8.66284e-08
-4.33201e-10
9.33517e-08
-1.82702e-10
-8.49156e-08
-7.67323e-10
9.34823e-08
1.73671e-10
-5.22182e-10
1.96157e-09
9.23583e-08
-6.931e-08
6.21383e-08
-6.23189e-08
-6.29502e-08
6.14865e-08
1.42339e-10
-3.16883e-09
2.96749e-09
-1.4236e-08
4.01245e-11
6.56703e-11
1.05499e-09
8.69134e-09
-1.13883e-08
3.83351e-08
-3.45687e-08
-1.67863e-08
1.38202e-08
-2.96762e-11
-1.95642e-10
1.14572e-10
5.21218e-10
-1.0992e-10
2.90562e-10
4.3916e-09
1.05554e-09
-3.5223e-09
-1.21014e-10
1.56142e-10
-8.27849e-11
-2.60744e-09
1.33123e-08
2.4599e-09
-1.44215e-08
-2.62676e-09
-3.23588e-09
5.49117e-09
1.0524e-09
-2.60564e-09
1.4377e-08
-1.19988e-09
-1.49577e-09
1.43335e-09
-8.1276e-09
-1.90865e-08
-1.35281e-08
8.06386e-09
5.76104e-09
-1.80581e-10
-5.76812e-10
2.90594e-09
1.44962e-08
2.29435e-09
-1.87476e-09
-3.53283e-10
4.03553e-10
-2.21288e-10
1.59012e-08
-6.09937e-10
-1.5663e-08
4.25444e-10
5.16155e-11
3.38824e-10
-2.74706e-10
3.37685e-09
-1.61687e-08
4.02109e-10
-1.45567e-09
-2.03666e-09
-2.27493e-09
1.57837e-08
-9.05915e-08
-1.38966e-10
9.16787e-08
-1.9037e-10
-8.9164e-08
-4.76795e-10
9.31018e-08
-2.75163e-10
-9.29122e-08
-5.29478e-10
-1.53102e-09
1.69017e-08
9.198e-08
-1.96694e-10
2.94353e-11
-2.20863e-10
9.68132e-09
2.40538e-09
-7.12663e-09
-1.22959e-08
-5.67596e-09
8.37729e-09
1.52369e-09
-6.75363e-09
-5.97735e-09
9.05717e-09
-4.0831e-11
1.01252e-08
1.94994e-08
-1.7989e-08
3.08932e-09
-1.28078e-08
3.12598e-09
-6.99594e-08
3.92403e-09
-2.06051e-08
-1.30458e-08
-4.44791e-10
-5.92058e-09
-1.53082e-08
9.08188e-09
-1.50815e-08
3.78446e-10
3.20554e-10
-1.95383e-09
-1.67657e-08
1.71587e-08
7.02773e-09
-7.61488e-09
-4.37275e-09
1.53405e-08
-1.6847e-09
7.21227e-10
-7.55571e-10
3.74379e-11
1.19694e-08
3.31691e-09
7.09127e-08
-1.82438e-08
6.61223e-10
-1.50928e-08
-2.12475e-10
-2.44441e-10
-1.38679e-10
6.09491e-08
-6.12243e-08
-6.33797e-08
-6.31474e-08
-6.42517e-11
-2.62164e-10
-9.25858e-08
-6.0452e-08
6.24136e-08
6.51034e-08
-6.02783e-08
6.45812e-08
-6.0461e-08
6.38139e-08
-6.07283e-08
6.33807e-08
9.23087e-08
2.45606e-10
-6.33401e-09
7.5128e-08
-6.5477e-08
2.39859e-11
-2.39859e-11
-4.11442e-11
-3.01484e-10
1.54756e-08
-4.37008e-12
4.37008e-12
2.83529e-10
1.51501e-09
1.39138e-08
1.34608e-08
-2.70699e-09
3.7141e-09
6.70802e-09
1.72997e-09
3.36881e-10
-2.26123e-10
-2.96346e-09
1.45772e-08
1.48426e-08
-4.29229e-09
1.18203e-08
1.57831e-10
1.27899e-10
2.66276e-09
-7.59491e-10
-1.46533e-09
-5.85139e-09
-1.9548e-10
-3.68593e-10
1.53134e-08
2.18478e-10
4.05817e-11
1.42598e-08
-2.62777e-08
1.78689e-08
2.69714e-09
1.19603e-09
2.50032e-09
-3.72138e-09
1.94064e-08
-1.81853e-08
-6.4373e-11
-2.82937e-11
-1.44137e-09
-7.92133e-08
-7.07514e-08
1.22476e-09
-3.24219e-10
6.03917e-10
2.30149e-08
1.86122e-08
-6.42096e-09
7.62234e-11
-4.2073e-09
-2.52548e-09
2.99593e-08
1.61275e-10
1.48184e-08
7.35786e-08
3.6461e-11
5.01331e-10
-1.35142e-10
-1.92339e-10
-3.56482e-09
2.43493e-08
-1.48686e-08
8.72247e-10
-1.42011e-08
-4.16843e-11
2.0407e-08
-2.87604e-08
9.60835e-10
1.8588e-09
-1.77162e-10
)
;

boundaryField
{
    back
    {
        type            empty;
        value           nonuniform 0();
    }
    ingreso
    {
        type            calculated;
        value           nonuniform List<scalar> 
14
(
-1.54286e-08
-1.54288e-08
-1.54288e-08
-1.54288e-08
-1.54286e-08
-1.54283e-08
-1.54288e-08
-1.54288e-08
-1.54286e-08
-1.54286e-08
-1.54288e-08
-1.5428e-08
-1.5428e-08
-1.54286e-08
)
;
    }
    salida
    {
        type            calculated;
        value           nonuniform List<scalar> 2(1.0141e-07 1.1459e-07);
    }
    front
    {
        type            empty;
        value           nonuniform 0();
    }
    defaultFaces
    {
        type            calculated;
        value           uniform 0;
    }
}


// ************************************************************************* //
