/*--------------------------------*- C++ -*----------------------------------*\
  =========                 |
  \\      /  F ield         | OpenFOAM: The Open Source CFD Toolbox
   \\    /   O peration     | Website:  https://openfoam.org
    \\  /    A nd           | Version:  7
     \\/     M anipulation  |
\*---------------------------------------------------------------------------*/
FoamFile
{
    version     2.0;
    format      ascii;
    class       volVectorField;
    location    "108";
    object      U;
}
// * * * * * * * * * * * * * * * * * * * * * * * * * * * * * * * * * * * * * //

dimensions      [0 1 -1 0 0 0 0];

internalField   nonuniform List<vector> 
591
(
(0.000838901 -2.84865e-07 1.21604e-18)
(0.000835925 1.55363e-07 -6.61154e-19)
(0.000852159 2.49018e-05 5.69549e-20)
(0.00086873 -2.90712e-05 -1.49003e-19)
(0.00085763 -1.32345e-05 2.25421e-19)
(0.000803677 -3.77866e-05 -1.39566e-19)
(0.00055948 -0.000210177 8.06248e-19)
(0.000803545 4.17391e-06 2.10802e-18)
(0.00572109 0.00251143 9.87985e-19)
(0.000820475 4.12299e-06 2.44097e-18)
(4.53147e-05 0.000157686 1.21783e-18)
(0.000939351 0.00139847 9.40691e-21)
(0.000801493 4.38376e-06 1.32284e-18)
(0.00160524 0.00240552 -7.8738e-19)
(0.000803242 1.39848e-06 -4.46659e-19)
(3.79498e-05 -0.000135016 2.54845e-22)
(0.000141599 0.000665846 7.04763e-19)
(0.000817926 8.16607e-05 -4.97138e-19)
(0.0018941 0.000392387 4.73718e-19)
(0.00135844 0.000259239 -2.47091e-19)
(0.000830437 -8.98844e-06 3.7307e-19)
(0.00340077 0.00656022 -8.1431e-20)
(2.2092e-05 6.17263e-05 2.70848e-19)
(0.00083563 -2.6459e-05 -4.51541e-19)
(5.02308e-06 -9.86725e-06 3.58773e-19)
(0.00079656 4.69935e-05 0)
(9.51062e-05 0.000464573 1.59925e-19)
(0.000583313 -4.54374e-06 -1.78764e-19)
(0.000769993 4.85575e-05 1.14902e-18)
(0.000805169 7.38536e-05 5.84254e-19)
(4.64709e-05 -6.10157e-06 -5.52264e-24)
(1.82825e-05 -3.66137e-05 3.52034e-19)
(2.56498e-05 -2.41696e-06 -4.64037e-20)
(3.51893e-05 -1.22571e-05 0)
(4.34578e-05 -1.27852e-05 1.131e-18)
(0.00116875 0.000142194 1.79813e-19)
(2.14025e-05 -3.85748e-06 4.46968e-20)
(0.000823546 6.52434e-07 3.08783e-23)
(2.19257e-05 3.66767e-05 2.65927e-19)
(-1.3456e-05 -4.9697e-05 -8.53026e-19)
(0.000662644 -0.000182069 9.58687e-19)
(1.6298e-05 -4.42291e-06 4.54643e-20)
(0.000817441 2.4082e-05 -1.5752e-18)
(0.00083167 5.14165e-05 -6.90623e-19)
(1.02815e-05 -4.84479e-06 0)
(4.5752e-05 2.90798e-06 8.5154e-20)
(0.00135052 0.00450265 8.92778e-19)
(6.52163e-05 8.47347e-06 8.63296e-20)
(0.000802915 1.72416e-05 0)
(0.000397208 -0.000234353 6.76862e-19)
(0.000392621 0.000263785 5.11753e-21)
(0.000407827 2.64588e-05 -1.0034e-18)
(0.00634783 0.0109402 -7.68716e-19)
(0.00622452 0.0107952 1.52794e-20)
(0.00561469 0.0103781 1.45599e-18)
(0.000804751 5.23392e-05 0)
(5.8937e-05 2.32774e-05 0)
(0.000322148 -1.50214e-05 3.11042e-23)
(5.32865e-05 5.29602e-06 -3.46325e-19)
(0.000811854 -6.58504e-06 0)
(0.000671907 2.79709e-05 3.1743e-19)
(0.000849067 3.2543e-05 2.20802e-18)
(0.000813704 4.099e-05 -5.3948e-19)
(0.000800031 1.10975e-05 -3.15641e-19)
(0.00171363 0.000486506 5.4237e-19)
(0.000814111 3.59197e-05 -1.14406e-18)
(0.000841322 4.04524e-05 -5.23766e-19)
(6.65588e-05 -8.97245e-06 -1.73344e-19)
(0.000691466 0.00225583 0)
(0.000846766 5.14991e-05 0)
(0.000796466 3.15175e-05 -1.39203e-18)
(3.19287e-05 1.22673e-05 0)
(0.000294575 0.000260222 3.26746e-19)
(2.94532e-05 -1.46988e-05 0)
(3.17583e-05 -5.3816e-06 1.5941e-19)
(3.44653e-06 -3.10567e-05 -3.36526e-20)
(0.000807041 7.95367e-05 2.46883e-19)
(3.69568e-05 7.39758e-06 0)
(0.000815598 5.60064e-05 4.47237e-19)
(0.000784325 0.000297119 2.10651e-19)
(0.000959432 7.04157e-05 -3.97552e-20)
(3.65479e-05 1.80128e-05 -4.51688e-20)
(2.76492e-06 -8.48605e-06 0)
(0.000446212 0.000208649 1.70128e-19)
(2.59378e-06 1.44603e-05 0)
(0.000808822 5.12289e-05 -6.08094e-19)
(0.000659097 -0.000112152 0)
(5.33969e-05 -5.84568e-06 -1.74412e-19)
(4.03805e-07 -1.25284e-05 0)
(0.000838905 0.000244136 -3.41126e-19)
(1.51088e-06 -4.44095e-06 0)
(0.000435989 0.000317712 -1.36106e-23)
(0.000550707 0.000105832 0)
(0.000818417 4.52604e-05 -3.18636e-24)
(2.00162e-06 8.3758e-06 -4.2155e-20)
(0.000480782 -3.40371e-05 1.7628e-18)
(0.00101608 7.49647e-05 4.15715e-20)
(0.000771793 4.8179e-05 6.41708e-22)
(0.000750405 0.000660683 2.6941e-19)
(6.85188e-06 3.57947e-05 0)
(-8.12588e-06 -8.56017e-06 -3.12186e-19)
(-3.71276e-05 4.36287e-06 -1.10124e-18)
(5.27064e-06 6.04048e-05 -5.96145e-19)
(0.000588036 -3.13142e-05 0)
(9.38771e-06 8.3258e-05 0)
(0.000822879 3.71954e-05 2.18078e-18)
(0.000804945 4.16979e-05 1.53372e-18)
(0.000460366 -0.00012311 0)
(3.82808e-05 0.00020339 -8.95031e-19)
(1.7489e-06 0.000145596 4.96802e-19)
(5.47816e-05 0.000384447 6.25083e-19)
(0.000313653 5.89152e-05 -9.36885e-19)
(0.000801773 1.99388e-05 1.37365e-19)
(0.000255028 -8.25765e-05 5.3101e-19)
(4.11754e-06 2.21193e-05 0)
(1.82942e-05 0.000263155 -1.09391e-18)
(0.000328287 0.000316043 -1.61655e-19)
(-2.00322e-06 -5.5835e-06 1.46514e-19)
(0.000670988 0.000801933 0)
(0.000377193 0.000377992 5.74238e-20)
(0.000828772 3.34763e-05 1.07022e-18)
(0.000799738 1.80886e-06 -2.72555e-18)
(5.39403e-06 2.31223e-05 0)
(0.000657631 -4.34833e-05 -1.12266e-19)
(0.000325332 -0.00016189 1.24268e-18)
(0.00261492 0.000810639 -3.36523e-19)
(8.83443e-06 0.000112095 -6.13092e-19)
(9.55571e-06 0.000140232 1.6195e-18)
(0.000642818 2.64167e-05 -3.89648e-20)
(5.04449e-05 -1.7271e-05 -7.49867e-19)
(0.000813875 4.19081e-05 -3.91405e-19)
(0.00069446 2.82317e-05 -4.10475e-20)
(3.06448e-05 0.000310742 -5.97036e-19)
(0.00051123 4.65369e-05 -4.93753e-19)
(3.85369e-05 -4.71833e-06 1.5609e-19)
(0.00084437 4.502e-05 -1.08516e-18)
(0.00152673 0.000236196 -1.13639e-18)
(5.41737e-06 4.84207e-05 4.96242e-19)
(0.00081447 3.86002e-05 -5.03317e-19)
(0.000927533 0.000558248 -7.84827e-20)
(0.000150668 0.000776146 0)
(0.000609695 6.09317e-05 0)
(0.000279436 3.41602e-05 -1.60888e-18)
(5.71034e-05 4.95626e-05 -1.37358e-18)
(2.55513e-05 1.63209e-05 0)
(0.00424796 0.00740137 -1.01965e-20)
(0.00422603 0.00737288 3.16688e-20)
(0.0044282 0.0075756 -4.99194e-21)
(0.00420526 0.00773332 0)
(0.0041977 0.0075992 5.77312e-19)
(0.0042449 0.00740238 -9.20433e-20)
(0.00420909 0.00804066 4.84555e-19)
(0.00429065 0.0074239 0)
(0.00420761 0.00853331 6.16875e-19)
(0.00432719 0.00745258 2.23957e-19)
(0.000839733 2.73746e-05 -1.37168e-18)
(0.000789481 6.49263e-05 0)
(0.000209195 3.19188e-05 1.27659e-19)
(4.2416e-05 1.09963e-05 8.71509e-20)
(7.02916e-05 3.50569e-05 6.79765e-19)
(9.62216e-05 2.88444e-05 -3.41541e-19)
(8.68848e-05 -5.04731e-06 0)
(3.92049e-05 2.03905e-06 8.18048e-20)
(0.000208543 0.00011537 0)
(0.00015758 2.18929e-05 -5.24143e-20)
(0.000350276 0.000210952 -5.09097e-21)
(4.93171e-05 3.51537e-05 -4.37488e-19)
(8.08738e-05 1.66738e-05 -8.52148e-20)
(8.33537e-05 5.05937e-05 1.31147e-21)
(0.000264062 0.000356658 -6.6598e-19)
(0.000111317 0.000989138 0)
(3.71177e-05 4.47763e-05 3.42933e-19)
(0.000200035 0.00173723 0)
(0.000209521 0.000241959 7.04444e-19)
(2.77671e-05 -2.72301e-06 1.11451e-19)
(0.00049882 0.000157158 -1.72244e-19)
(0.000782525 3.20456e-05 -1.92346e-18)
(3.37699e-05 -1.93747e-06 5.03516e-24)
(0.000136695 8.14892e-06 2.24511e-19)
(0.000247497 7.37472e-05 -8.99012e-20)
(0.000884597 0.000694115 3.34841e-19)
(0.000725283 0.0016347 -9.2336e-21)
(0.000393543 0.00141714 -9.3798e-21)
(0.00103364 0.000550216 0)
(8.48869e-05 -2.33131e-05 1.1183e-18)
(0.000103096 7.86139e-07 -4.42783e-20)
(0.000477904 -0.000259468 -1.1361e-18)
(0.000827874 4.4146e-05 0)
(0.000171997 -2.42367e-05 3.63184e-19)
(0.000307935 0.00129586 0)
(0.00109018 0.000772734 -7.29974e-20)
(0.000826475 2.55026e-05 -1.86478e-19)
(6.07726e-05 -2.51197e-05 -2.99862e-19)
(0.000845361 0.000313793 -2.07969e-20)
(4.00214e-05 -2.09861e-05 -5.99245e-19)
(0.000228701 0.00016068 8.63608e-20)
(0.000232901 0.000301021 -3.44905e-19)
(0.000902568 0.000255258 0)
(0.000830609 5.95707e-05 0)
(0.000268542 0.00011596 1.76788e-19)
(0.000231004 -2.64898e-05 9.48797e-24)
(0.000185544 0.000193519 0)
(0.000309004 0.000642201 -5.55512e-21)
(0.000368456 -4.19642e-05 0)
(0.000383759 0.000598207 0)
(0.000102017 6.92234e-05 -1.34621e-21)
(0.000810327 3.03108e-05 -9.55041e-19)
(0.000804905 1.6144e-05 7.90711e-19)
(0.000120999 4.2494e-05 -1.49801e-19)
(0.000978941 0.000146122 8.5003e-20)
(0.000841947 3.58618e-05 3.33488e-19)
(0.00082389 3.77037e-05 -2.93962e-19)
(0.00103701 0.000422548 0)
(0.000453546 0.000103541 6.24201e-19)
(0.000920122 0.00032515 2.0906e-20)
(0.000598684 0.00014875 0)
(0.000277294 0.000441198 4.09527e-19)
(0.000264049 0.000204153 -8.43914e-20)
(0.00110891 0.000386742 -7.81806e-19)
(0.000647297 0.000102502 -1.7922e-19)
(0.000826683 7.87205e-05 -7.45749e-21)
(0.00084696 2.04264e-05 9.38995e-20)
(4.2496e-05 -8.41348e-05 -1.98058e-18)
(0.000748343 0.000379265 2.19163e-19)
(0.00069329 7.11249e-05 2.3056e-20)
(0.00072053 0.00027864 1.62948e-23)
(0.000743831 0.000462428 -4.09537e-19)
(0.000856544 1.18043e-05 9.06713e-20)
(6.63324e-05 6.82051e-05 0)
(0.000665731 0.000426176 -4.65768e-20)
(0.000180698 7.77455e-05 0)
(0.000374355 0.000500929 -2.64764e-19)
(0.000314244 0.00015228 0)
(0.000690585 0.000205389 3.55091e-19)
(0.000664302 0.000259437 -4.37091e-20)
(7.81809e-05 9.37006e-05 6.18928e-19)
(0.000890751 9.77846e-05 -1.63771e-18)
(4.94295e-05 1.59412e-05 2.57092e-19)
(0.000903507 7.38255e-05 -1.68585e-18)
(0.000853567 9.16006e-05 1.63022e-19)
(0.000816713 3.89788e-05 1.91699e-18)
(0.000822923 3.20202e-05 -1.32793e-19)
(0.000751251 7.01888e-05 0)
(0.000804937 1.86529e-05 9.00273e-19)
(0.000977565 0.000241001 -4.26926e-19)
(0.000795262 0.000102866 -4.83548e-19)
(0.000785795 0.000239184 -8.80876e-20)
(0.000188617 -0.000204142 -2.07419e-18)
(0.000770948 8.37823e-05 8.87187e-19)
(0.000646273 0.000590063 0)
(4.57703e-05 -0.000123234 0)
(0.00123246 0.000478859 4.97144e-19)
(0.000526344 -5.21996e-05 -3.27029e-18)
(0.00135831 0.000420679 5.76227e-19)
(0.00125694 0.000721743 -6.38834e-20)
(0.000818145 3.55649e-05 -2.12665e-19)
(0.000846231 6.61798e-05 -1.42764e-18)
(0.000813616 2.71382e-05 1.58522e-18)
(0.000813637 1.87518e-05 9.77683e-20)
(0.0006786 0.000353062 -4.4025e-20)
(9.764e-05 0.000109138 1.05606e-23)
(0.000771543 -2.4883e-05 2.64843e-19)
(0.000204058 -0.000252911 -7.33849e-19)
(0.000647537 0.000181054 0)
(0.000733064 5.18794e-05 9.89976e-20)
(0.00072968 1.03151e-05 -3.80653e-19)
(0.000400547 0.000159197 3.93229e-20)
(0.000815488 0.000510714 -1.65421e-19)
(0.000142852 5.9367e-05 4.55575e-25)
(0.000824613 0.000412192 0)
(0.000994237 0.000315746 4.15605e-20)
(0.000773731 -5.42488e-05 -6.15774e-19)
(0.000359274 8.7079e-05 4.97661e-19)
(0.000907087 0.000427532 0)
(4.24166e-05 2.50735e-05 1.33659e-19)
(0.00049986 0.000258719 2.13877e-19)
(0.000560544 -0.000175978 -7.09116e-19)
(7.9164e-05 -0.000177396 -1.0559e-18)
(0.00082737 4.34757e-05 -4.86491e-19)
(0.000755095 -5.31626e-05 -1.94632e-19)
(0.000554658 0.000727752 -1.17396e-18)
(0.000857865 4.45425e-05 -6.73404e-20)
(0.000543671 -5.73687e-06 1.28278e-18)
(0.000724487 9.93307e-05 2.27686e-20)
(0.000549845 0.000201314 -1.65628e-19)
(2.06455e-05 -1.73081e-05 -8.75506e-20)
(0.000141516 -6.79206e-05 2.40502e-18)
(1.02193e-05 4.67708e-07 -1.94786e-19)
(0.000848868 0.000120785 3.636e-19)
(0.000689077 0.000134406 0)
(0.000162193 -0.000122037 -1.04782e-18)
(0.000106059 -3.17435e-05 3.12654e-19)
(8.44785e-05 -4.35473e-05 1.23441e-23)
(0.00081646 0.000106403 -3.19137e-19)
(0.000140186 -2.88507e-05 0)
(0.000602702 0.000236267 0)
(0.000111376 0.000318445 -3.6274e-19)
(0.000872754 0.000102139 2.10754e-18)
(8.29674e-06 5.74776e-07 0)
(0.000892875 5.06499e-05 0)
(3.1365e-05 -2.39707e-05 0)
(0.000815129 4.9153e-05 -4.46625e-21)
(0.000778839 -2.13495e-05 0)
(0.00426108 0.00740814 8.07182e-20)
(0.00436306 0.00748862 1.43359e-19)
(0.000842002 -2.2961e-05 0)
(0.000802875 -2.69892e-05 8.11318e-19)
(0.000150845 0.000110565 1.49158e-19)
(0.000866939 6.61825e-05 8.08327e-19)
(0.000125063 8.82047e-05 2.34311e-20)
(0.000798098 -1.51527e-05 6.23872e-19)
(2.86219e-05 7.07657e-06 0)
(1.95942e-05 -1.03103e-05 -4.483e-20)
(0.00091133 4.60687e-05 -4.86349e-19)
(2.09266e-05 -2.61637e-05 -6.69535e-19)
(0.000775876 0.00012907 -4.23065e-20)
(0.000169605 0.000148209 -1.88037e-19)
(0.000812981 3.27654e-05 0)
(0.00468253 0.00815354 9.00774e-22)
(0.000198685 0.000791897 3.33355e-19)
(8.84713e-05 -7.13676e-05 -9.14164e-19)
(4.46732e-05 -3.41663e-05 -1.16834e-18)
(0.000572722 1.28863e-05 1.89463e-20)
(0.000587821 0.000401983 0)
(0.000428145 0.000446156 -2.5625e-19)
(5.73102e-05 -6.54844e-05 1.18329e-18)
(0.000536872 -2.31527e-06 7.67207e-20)
(3.42263e-05 5.70933e-07 4.0693e-19)
(0.000733348 -3.74069e-05 1.1711e-18)
(0.000812794 3.20471e-05 -6.06198e-19)
(4.14886e-05 -5.27534e-05 1.70887e-18)
(0.000840653 -4.87977e-05 -6.53663e-24)
(0.000549434 5.77244e-06 -3.74472e-20)
(0.000881894 7.21713e-05 0)
(0.000847861 5.66269e-05 0)
(0.00591459 0.00724375 2.6003e-19)
(1.02533e-05 -3.17442e-06 -1.19554e-19)
(8.0938e-05 -0.000120805 7.72773e-19)
(0.000744839 0.000113741 -6.96147e-19)
(1.26953e-05 3.41723e-07 2.01481e-19)
(0.000665401 -3.50887e-05 -7.2349e-19)
(0.000761568 3.5912e-05 1.55738e-18)
(0.000721322 0.000155887 -3.55299e-19)
(0.000807171 -1.11092e-05 3.60681e-19)
(5.68774e-05 -3.79047e-05 1.11554e-18)
(0.000802068 6.60662e-06 -3.22525e-19)
(0.000878658 3.29458e-05 0)
(0.000555687 0.000300206 4.20866e-20)
(0.000871356 4.76634e-05 -9.47521e-19)
(1.1079e-05 3.00179e-06 9.11281e-19)
(0.000864666 3.81856e-05 9.65905e-19)
(0.00086554 3.17348e-05 -9.64025e-19)
(0.000771475 3.80306e-06 -5.68924e-19)
(0.000561941 -8.75478e-05 -5.25416e-19)
(0.00433014 0.00745481 2.47061e-19)
(0.0042225 0.00752787 -2.53739e-19)
(0.00422013 0.00758572 2.6697e-19)
(0.00425668 0.00741187 1.98018e-19)
(0.000845149 -4.03246e-05 1.44211e-19)
(0.00447702 0.0075153 0)
(0.00440463 0.00751934 -3.86844e-19)
(1.83042e-05 -1.63341e-07 -9.97844e-19)
(0.00416981 0.00746824 -6.33761e-20)
(0.00414533 0.00743152 -2.21556e-19)
(0.00602926 0.0106047 0)
(0.00654022 0.0111866 3.71584e-20)
(0.00600918 0.0105745 0)
(0.00655592 0.0112103 1.30984e-19)
(0.00599665 0.0105985 2.69699e-19)
(0.00659261 0.0112272 1.24746e-20)
(0.00593558 0.0106111 -7.76853e-19)
(0.00662289 0.0111462 8.16704e-21)
(0.00390343 0.00919704 -1.90806e-19)
(0.00418601 0.00748722 3.90066e-21)
(0.00423699 0.0075512 7.93725e-20)
(0.00414983 0.00743384 4.12117e-20)
(0.000900485 0.000197994 4.46554e-20)
(5.6368e-06 7.69818e-07 0)
(0.000734595 -9.34998e-05 0)
(0.000656908 5.87687e-05 0)
(0.00244742 0.00111947 4.23663e-21)
(0.000759235 -2.98865e-05 1.72506e-19)
(3.31094e-05 3.74715e-06 4.53879e-20)
(3.85655e-06 -1.90671e-05 1.65229e-18)
(0.000866944 7.59699e-07 0)
(2.28365e-05 9.74568e-06 -1.91653e-19)
(0.000138964 0.00021251 0)
(8.79846e-06 -7.28427e-07 0)
(6.60781e-06 -7.38844e-07 0)
(0.000842836 0.000151501 1.13733e-20)
(0.000810967 -1.7565e-05 1.79547e-19)
(3.8947e-05 0.000251028 -7.28072e-24)
(0.000155953 0.000263778 -1.84135e-18)
(0.000616387 0.000325123 -8.56708e-20)
(0.000906581 0.000116701 6.01669e-19)
(0.000575141 -0.000129912 6.74986e-19)
(0.000358304 0.00111827 0)
(0.000484588 0.000575301 2.71451e-18)
(8.74496e-05 0.000134594 -1.80253e-18)
(1.19967e-05 -3.6161e-07 0)
(0.000823068 -6.47106e-05 3.64038e-20)
(1.28202e-05 2.93421e-05 1.64387e-18)
(0.000891745 3.6672e-05 2.71012e-19)
(-3.09949e-05 9.70805e-05 3.80905e-18)
(0.000923701 4.27326e-05 -2.68881e-19)
(0.00133038 0.000158524 7.47287e-19)
(2.60556e-05 -9.01738e-06 8.25382e-20)
(2.7886e-05 1.6831e-06 -8.58771e-19)
(5.06339e-05 0.000130883 0)
(0.000924025 9.20385e-05 5.98181e-19)
(0.000502038 0.000365607 2.3707e-19)
(0.000597311 1.7048e-05 -3.8889e-20)
(0.000792942 1.05398e-05 2.57156e-19)
(0.000725588 -0.000123144 0)
(0.00632098 0.0108951 -1.68094e-19)
(0.00637873 0.0109728 4.05922e-19)
(0.00616003 0.0107298 -6.18551e-19)
(0.00650123 0.0111319 -8.10028e-20)
(3.06199e-05 0.000108787 8.00247e-19)
(0.000933251 6.24043e-05 1.441e-22)
(0.0064113 0.0110053 -3.86546e-19)
(0.00628196 0.0108447 5.48571e-19)
(0.00608013 0.0106715 -4.16875e-19)
(0.00652174 0.0111644 -6.81619e-20)
(7.81994e-05 0.000484375 -2.0177e-20)
(3.49072e-05 -0.000183899 -7.92698e-19)
(0.000627379 -1.86657e-05 -7.67016e-19)
(0.000735261 0.000219343 0)
(0.000800302 2.55915e-07 0)
(0.000191094 0.000382942 3.36201e-19)
(0.00060557 0.00051112 -5.417e-19)
(3.89929e-06 -6.9626e-07 1.78325e-19)
(0.000200742 0.000465302 -7.38189e-19)
(0.00102645 0.000981034 -1.12668e-19)
(0.000759539 0.00016715 0)
(0.000800029 0.000184609 1.30972e-19)
(0.00634755 0.0058838 1.1322e-18)
(0.000734463 0.00113082 8.26469e-20)
(3.37846e-05 3.24542e-05 -7.44409e-20)
(0.000808555 1.16439e-05 0)
(0.000868261 2.04881e-05 -3.56783e-20)
(2.66316e-05 1.61107e-06 -1.9667e-19)
(2.33643e-05 2.90216e-06 1.92931e-19)
(0.000835134 1.07758e-05 5.37002e-19)
(0.000991971 0.000115212 6.57895e-19)
(0.000526714 5.00488e-05 0)
(0.000219816 -0.000251348 -4.00075e-19)
(0.000923262 0.000143293 3.89432e-19)
(-5.94778e-07 -3.95901e-05 2.02924e-19)
(0.00145535 0.000445651 -2.57986e-18)
(0.000549587 -1.57594e-05 0)
(0.000805249 0.000141789 3.75326e-19)
(9.70639e-05 0.000382712 0)
(0.00118916 0.00816142 4.62049e-19)
(0.000499918 0.000496112 -1.22419e-18)
(0.000541598 0.00101861 -1.83705e-19)
(0.000891794 1.15198e-05 -1.46004e-19)
(9.73121e-06 2.06516e-05 0)
(0.000966924 7.90695e-05 6.11357e-19)
(0.00410594 0.0073948 8.14525e-20)
(0.00417064 0.00747272 4.73142e-20)
(0.00450077 0.00751804 4.54155e-19)
(0.00444608 0.00754366 -3.29422e-19)
(0.00647514 0.0111089 8.108e-20)
(0.00391473 0.00714587 -9.46533e-22)
(0.00550724 0.00780071 -5.64831e-19)
(0.00409774 0.00737139 5.21928e-21)
(0.00518873 0.00786059 5.11766e-19)
(0.0040795 0.00733973 -4.87484e-20)
(0.00495415 0.00772016 0)
(0.00408469 0.00736398 -8.56937e-20)
(0.00474306 0.00759103 4.92597e-19)
(0.00409793 0.00737558 8.7543e-20)
(0.00457582 0.00753061 0)
(0.00428461 0.00742235 1.39775e-19)
(0.00423834 0.00759728 5.80728e-19)
(0.0044685 0.00752918 -5.55525e-19)
(0.00438882 0.00750685 3.71443e-19)
(0.00422707 0.00752378 2.87986e-19)
(0.00643048 0.0110421 -4.97761e-21)
(0.00411737 0.0074009 3.11687e-20)
(0.00645862 0.011072 0)
(1.88186e-05 3.91358e-06 -1.89791e-19)
(0.00200279 0.00654768 2.28161e-19)
(0.000838383 -6.26649e-05 1.09572e-19)
(0.000850608 -1.48539e-06 0)
(4.52885e-07 1.94235e-07 -3.98963e-19)
(-3.96908e-05 -6.08438e-05 6.91011e-19)
(2.25248e-05 4.98316e-05 2.0883e-18)
(0.000843189 0.000189796 -9.00333e-20)
(0.000801766 8.30733e-06 7.06131e-19)
(-2.48352e-07 4.48033e-07 3.09871e-19)
(1.11445e-05 -2.54111e-05 -1.8449e-18)
(0.000763496 2.6479e-05 1.63095e-19)
(0.000876121 0.000126715 -3.07867e-20)
(0.00080113 -6.64281e-06 1.48076e-19)
(0.000439709 0.000678196 0)
(-6.24322e-06 -0.000125725 1.1509e-18)
(0.000878806 -3.6183e-06 1.52478e-19)
(1.70555e-05 1.98431e-05 0)
(0.00012108 0.000551306 -6.31104e-19)
(0.000615886 0.000582081 1.31741e-18)
(0.000337426 0.000758076 0)
(0.000802173 -1.37277e-05 0)
(0.000801871 3.15793e-06 1.17688e-18)
(1.40201e-05 4.24982e-05 -3.51375e-18)
(1.28368e-05 4.99786e-06 3.73487e-19)
(0.000116488 0.000133278 0)
(3.00498e-05 -3.72368e-05 0)
(5.76857e-05 0.000103477 2.0093e-19)
(0.000945178 0.000190489 3.50297e-19)
(0.000801969 1.54822e-05 -1.38291e-18)
(1.97254e-05 2.80175e-05 0)
(0.000399367 1.53781e-06 -6.04629e-20)
(0.000799172 3.50165e-05 -1.56297e-19)
(0.000852822 5.22874e-05 1.06526e-18)
(0.00025104 0.000542754 6.32057e-19)
(0.000886683 0.00015866 0)
(1.11239e-05 -1.76738e-05 5.38414e-19)
(9.42558e-07 -1.12104e-06 -3.19846e-19)
(0.000934088 3.57656e-05 0)
(0.00105028 0.00227194 0)
(0.000895691 4.53917e-06 0)
(0.00101006 0.000209563 4.27007e-19)
(0.000819115 -3.73627e-05 -2.84169e-19)
(0.000946559 0.000116087 -6.84505e-19)
(0.000801272 3.78571e-06 0)
(3.9291e-05 6.07456e-05 -1.71507e-19)
(0.000174779 0.000320384 1.08083e-18)
(0.000801361 1.40318e-05 -2.56474e-23)
(0.0011122 0.000208539 -6.68399e-19)
(0.00108726 0.000130009 0)
(1.60525e-06 3.02401e-06 2.50936e-19)
(1.24932e-05 -1.11563e-05 -1.94243e-19)
(0.000547858 5.0232e-05 6.94788e-21)
(-1.31309e-05 -5.13705e-05 0)
(0.00108022 0.000257836 9.49568e-19)
(0.00502885 0.00974827 -2.82866e-19)
(0.00312168 0.00961658 1.27243e-18)
(6.48881e-06 -8.6447e-05 -1.91253e-19)
(2.91725e-05 -6.79764e-05 1.85869e-18)
(0.00119334 0.000260924 1.67283e-19)
(0.00133229 0.00107507 2.34025e-19)
(0.000810496 3.97416e-06 -7.36923e-19)
(0.000201867 0.000947634 -2.38188e-19)
(0.000819777 0.000946946 -2.18524e-19)
(0.000800418 -1.88372e-06 0)
(8.1345e-05 0.000605594 0)
(9.40619e-05 0.000274043 -3.42647e-23)
(0.000720944 -4.85336e-05 -1.67055e-23)
(0.000828177 6.94832e-05 1.5255e-19)
(0.00263365 0.00206866 -1.23119e-18)
(0.00176096 0.00923811 -1.17189e-19)
(0.000833639 7.53881e-05 4.91899e-19)
(0.00631636 0.00405394 -1.76257e-19)
(0.0067208 0.0115569 -1.36642e-20)
(0.00473398 0.00784362 4.93679e-21)
(0.000806504 1.36926e-05 -2.17563e-18)
(0.000844825 -1.16128e-06 8.36914e-24)
(4.08105e-06 -4.50205e-06 -3.47889e-19)
(4.44272e-05 8.04164e-05 -3.49159e-19)
(6.06938e-05 0.000256452 8.75068e-19)
(7.9843e-06 1.26366e-05 4.90232e-19)
(8.98647e-05 0.000219497 3.69654e-19)
(0.000818414 1.35627e-05 0)
(0.00534827 0.00949239 1.94888e-20)
(0.00155022 0.000640671 -2.61122e-20)
(0.00081896 4.14575e-05 3.60048e-19)
(8.2428e-06 -6.75767e-05 0)
(0.00184916 0.000749905 5.45876e-19)
(6.45637e-06 5.18496e-06 -2.70059e-19)
(2.93365e-05 2.36711e-05 9.71476e-20)
(0.00133679 0.00139905 6.36524e-19)
(0.000740342 4.9818e-05 1.8304e-19)
(8.50589e-07 -4.54589e-07 -1.70139e-19)
(0.00206646 0.00156383 -1.05559e-18)
(0.000126938 0.000168079 -8.18521e-19)
(0.00392004 0.00848903 -1.0908e-18)
(2.49674e-06 7.62428e-07 8.81117e-20)
(8.84295e-05 -2.45655e-05 -1.25811e-18)
(2.99468e-05 -5.16811e-05 4.05492e-20)
(0.00153453 0.000989265 0)
(0.00104471 0.000143203 -3.98618e-22)
(0.000457044 0.000844752 -4.01971e-20)
(0.000803656 2.75291e-05 -2.33995e-19)
(8.68196e-05 0.00017461 7.35842e-19)
(1.48029e-05 -4.9486e-05 4.03843e-19)
(1.52972e-05 1.21813e-05 -9.46768e-20)
(2.73884e-05 8.19059e-05 -3.20182e-19)
(0.000216427 -0.000144235 -5.45749e-19)
(0.00325208 0.00346898 2.88739e-21)
)
;

boundaryField
{
    back
    {
        type            empty;
    }
    ingreso
    {
        type            fixedValue;
        value           uniform (0.0008 0 0);
    }
    salida
    {
        type            zeroGradient;
    }
    front
    {
        type            empty;
    }
    defaultFaces
    {
        type            noSlip;
    }
}


// ************************************************************************* //
