/*--------------------------------*- C++ -*----------------------------------*\
  =========                 |
  \\      /  F ield         | OpenFOAM: The Open Source CFD Toolbox
   \\    /   O peration     | Website:  https://openfoam.org
    \\  /    A nd           | Version:  7
     \\/     M anipulation  |
\*---------------------------------------------------------------------------*/
FoamFile
{
    version     2.0;
    format      ascii;
    class       volVectorField;
    location    "113";
    object      U;
}
// * * * * * * * * * * * * * * * * * * * * * * * * * * * * * * * * * * * * * //

dimensions      [0 1 -1 0 0 0 0];

internalField   nonuniform List<vector> 
591
(
(0.000839905 2.7919e-06 1.21579e-18)
(0.000837546 3.17611e-06 -6.60691e-19)
(0.00085106 2.85138e-05 5.6922e-20)
(0.000869341 -3.11354e-05 -1.49001e-19)
(0.000858693 -1.47507e-05 2.2542e-19)
(0.000803693 -3.74572e-05 -1.39559e-19)
(0.000556208 -0.000200614 8.06384e-19)
(0.000803468 4.09754e-06 2.10778e-18)
(0.00572024 0.00251199 9.87964e-19)
(0.000823054 7.31962e-06 2.43586e-18)
(4.49842e-05 0.000156019 1.21777e-18)
(0.000939727 0.00140001 9.40637e-21)
(0.000801535 4.446e-06 1.32306e-18)
(0.00160578 0.00240607 -7.87354e-19)
(0.000803223 1.42464e-06 -4.46755e-19)
(3.43301e-05 -0.000125144 2.51403e-22)
(0.000141928 0.000663791 7.04738e-19)
(0.000818153 8.24548e-05 -4.97422e-19)
(0.00189248 0.000392764 4.73721e-19)
(0.00135764 0.000260414 -2.47097e-19)
(0.000829856 -8.96098e-06 3.73048e-19)
(0.00340084 0.00656038 -8.14272e-20)
(2.15221e-05 6.05494e-05 2.70835e-19)
(0.000835319 -2.6887e-05 -4.51536e-19)
(4.32565e-06 -9.12019e-06 3.58754e-19)
(0.000798885 4.90747e-05 0)
(9.53761e-05 0.000463176 1.59918e-19)
(0.000588681 -5.91894e-06 -1.78752e-19)
(0.000772604 4.96026e-05 1.14895e-18)
(0.000804543 7.53223e-05 5.8452e-19)
(4.50188e-05 -6.39441e-06 -5.54296e-24)
(1.64156e-05 -3.53171e-05 3.52016e-19)
(2.42549e-05 -2.34995e-06 -4.64013e-20)
(3.38461e-05 -1.22546e-05 0)
(4.19412e-05 -1.27649e-05 1.13094e-18)
(0.00116776 0.000143109 1.79798e-19)
(2.01551e-05 -3.6854e-06 4.46945e-20)
(0.00082325 9.19928e-07 3.06834e-23)
(2.13126e-05 3.57719e-05 2.65914e-19)
(-1.76548e-05 -4.34249e-05 -8.53715e-19)
(0.000663937 -0.000176716 9.58694e-19)
(1.51995e-05 -4.14998e-06 4.54621e-20)
(0.000819366 2.69156e-05 -1.57385e-18)
(0.000831355 5.19497e-05 -6.90521e-19)
(9.465e-06 -4.47555e-06 0)
(4.45266e-05 2.40679e-06 8.51497e-20)
(0.00135111 0.00450213 8.92729e-19)
(6.37983e-05 7.49957e-06 8.63253e-20)
(0.000803135 1.76086e-05 0)
(0.000398683 -0.000235297 6.76788e-19)
(0.000393923 0.000262457 5.11729e-21)
(0.000410014 2.34192e-05 -1.00334e-18)
(0.00634785 0.0109401 -7.68667e-19)
(0.00622455 0.0107951 1.52786e-20)
(0.00561478 0.0103781 1.4559e-18)
(0.000804344 5.46329e-05 0)
(5.78529e-05 2.22646e-05 0)
(0.000323077 -1.94807e-05 3.50809e-23)
(5.20036e-05 4.61541e-06 -3.46308e-19)
(0.000811711 -6.40357e-06 0)
(0.000676584 2.78054e-05 3.17411e-19)
(0.000850629 3.53685e-05 2.20823e-18)
(0.000814824 4.20753e-05 -5.41926e-19)
(0.000799993 1.09437e-05 -3.15625e-19)
(0.00171361 0.000486728 5.42314e-19)
(0.000815741 3.76395e-05 -1.14385e-18)
(0.000842594 4.26424e-05 -5.22917e-19)
(6.47167e-05 -9.75384e-06 -1.73335e-19)
(0.000691852 0.0022548 0)
(0.000847272 5.25241e-05 0)
(0.000798593 3.41153e-05 -1.39173e-18)
(3.11231e-05 1.17849e-05 0)
(0.000295245 0.000258722 3.26732e-19)
(2.80349e-05 -1.43861e-05 0)
(3.04634e-05 -5.32702e-06 1.59403e-19)
(2.09756e-06 -2.93124e-05 -3.36508e-20)
(0.000808975 7.97127e-05 2.4683e-19)
(3.59838e-05 6.97724e-06 0)
(0.000817171 5.65338e-05 4.47069e-19)
(0.000785516 0.000297899 2.10639e-19)
(0.000958706 7.14392e-05 -3.97491e-20)
(3.57095e-05 1.73601e-05 -4.51665e-20)
(2.38616e-06 -6.86253e-06 0)
(0.000447829 0.000207553 1.70119e-19)
(2.54654e-06 1.35552e-05 0)
(0.000809866 5.29932e-05 -6.08342e-19)
(0.000665111 -0.00011023 0)
(5.18649e-05 -6.40319e-06 -1.74403e-19)
(6.90031e-08 -1.05352e-05 0)
(0.000840203 0.000245303 -3.41106e-19)
(1.24169e-06 -3.4392e-06 0)
(0.000437738 0.000316779 -1.3701e-23)
(0.00055371 0.000104903 0)
(0.000819317 4.58932e-05 -3.22364e-24)
(1.91583e-06 7.72834e-06 -4.21528e-20)
(0.000484768 -3.68435e-05 1.76269e-18)
(0.00101497 7.59054e-05 4.15666e-20)
(0.000765971 4.86329e-05 6.41778e-22)
(0.0007517 0.000661178 2.69396e-19)
(6.81817e-06 3.43094e-05 0)
(-8.27076e-06 -3.03768e-06 -3.12167e-19)
(-3.62911e-05 1.50136e-05 -1.10092e-18)
(5.37364e-06 5.84429e-05 -5.96115e-19)
(0.000585991 -3.24065e-05 0)
(9.48766e-06 8.10733e-05 0)
(0.000823698 3.84151e-05 2.1805e-18)
(0.000806855 4.39175e-05 1.53364e-18)
(0.000464901 -0.00012787 0)
(3.79994e-05 0.000201415 -8.94983e-19)
(2.00108e-06 0.000143084 4.96809e-19)
(5.42234e-05 0.000381914 6.25057e-19)
(0.000314705 5.59215e-05 -9.36857e-19)
(0.000801783 1.99922e-05 1.37358e-19)
(0.000253944 -8.80391e-05 5.3098e-19)
(4.07304e-06 2.0972e-05 0)
(1.81504e-05 0.000260518 -1.0939e-18)
(0.000329262 0.000314925 -1.61648e-19)
(-2.28631e-06 -2.29808e-06 1.46524e-19)
(0.000671758 0.000800185 0)
(0.000378422 0.00037658 5.74212e-20)
(0.00083019 3.54706e-05 1.07015e-18)
(0.000799728 1.84996e-06 -2.72556e-18)
(3.92747e-06 2.90869e-05 0)
(0.000657222 -4.43768e-05 -1.1226e-19)
(0.000325851 -0.000167219 1.24257e-18)
(0.00261326 0.000810999 -3.36525e-19)
(9.15682e-06 0.000109753 -6.13076e-19)
(9.94264e-06 0.000138017 1.6195e-18)
(0.00063606 2.67462e-05 -3.89624e-20)
(4.86715e-05 -1.76874e-05 -7.49831e-19)
(0.000814781 4.30787e-05 -3.91532e-19)
(0.000688182 2.85064e-05 -4.10482e-20)
(3.03148e-05 0.000308437 -5.97033e-19)
(0.000515012 4.41152e-05 -4.93726e-19)
(3.72342e-05 -4.88616e-06 1.56082e-19)
(0.000845131 4.6495e-05 -1.0823e-18)
(0.00152477 0.000236977 -1.13636e-18)
(5.50873e-06 4.67698e-05 4.96216e-19)
(0.000814834 3.90899e-05 -5.03286e-19)
(0.000928744 0.000559728 -7.84786e-20)
(0.000151035 0.000774847 0)
(0.000613748 6.02747e-05 0)
(0.00028002 3.10088e-05 -1.60878e-18)
(5.6321e-05 4.83763e-05 -1.37351e-18)
(2.48953e-05 1.57913e-05 0)
(0.004248 0.00740153 -1.01958e-20)
(0.00422608 0.00737302 3.16661e-20)
(0.00442825 0.00757573 -4.99175e-21)
(0.00420518 0.00773327 0)
(0.00419761 0.00759917 5.77275e-19)
(0.00424494 0.00740253 -9.20358e-20)
(0.00420904 0.00804058 4.84526e-19)
(0.00429067 0.00742406 0)
(0.00420759 0.00853318 6.16835e-19)
(0.00432719 0.00745273 2.23942e-19)
(0.000841698 2.97052e-05 -1.37137e-18)
(0.000791891 6.65122e-05 0)
(0.000208658 2.89158e-05 1.27654e-19)
(4.13988e-05 1.04001e-05 8.71465e-20)
(6.93041e-05 3.37907e-05 6.79731e-19)
(9.49495e-05 2.71941e-05 -3.41524e-19)
(8.50688e-05 -6.25286e-06 0)
(3.80669e-05 1.69894e-06 8.18007e-20)
(0.000208875 0.00011301 0)
(0.000156453 1.91179e-05 -5.24122e-20)
(0.000351183 0.000209356 -5.09074e-21)
(4.84805e-05 3.41556e-05 -4.37466e-19)
(7.95672e-05 1.5342e-05 -8.52106e-20)
(8.24566e-05 4.90935e-05 1.3114e-21)
(0.000265007 0.000355405 -6.65952e-19)
(0.000111737 0.000988578 0)
(3.65131e-05 4.37569e-05 3.42916e-19)
(0.000200042 0.00173638 0)
(0.000209793 0.000240312 7.04414e-19)
(2.64688e-05 -2.62001e-06 1.11445e-19)
(0.000500934 0.000156146 -1.72236e-19)
(0.000785255 3.44336e-05 -1.92298e-18)
(3.25913e-05 -2.01687e-06 5.03671e-24)
(0.000135141 5.91492e-06 2.245e-19)
(0.000247965 7.11497e-05 -8.9897e-20)
(0.000885461 0.000693956 3.34825e-19)
(0.000724149 0.00163465 -9.23339e-21)
(0.000392537 0.00141688 -9.37944e-21)
(0.00103494 0.000551479 0)
(8.25082e-05 -2.42279e-05 1.11824e-18)
(0.000101415 -1.15092e-06 -4.42743e-20)
(0.00047947 -0.000253855 -1.13611e-18)
(0.000828869 4.42178e-05 0)
(0.000170475 -2.77257e-05 3.63168e-19)
(0.000308723 0.00129572 0)
(0.00109051 0.000772257 -7.29938e-20)
(0.000826154 2.46593e-05 -1.86467e-19)
(5.86385e-05 -2.55243e-05 -2.99844e-19)
(0.000846717 0.000313741 -2.07958e-20)
(3.80034e-05 -2.08974e-05 -5.99213e-19)
(0.000229153 0.00015855 8.6357e-20)
(0.000233257 0.000299755 -3.4489e-19)
(0.000904296 0.000256175 0)
(0.000832234 6.02722e-05 0)
(0.000269314 0.000113285 1.76781e-19)
(0.000230381 -3.05955e-05 1.05107e-23)
(0.000185786 0.000191726 0)
(0.000309309 0.000641073 -5.55482e-21)
(0.000371151 -4.6984e-05 0)
(0.000383895 0.000598318 0)
(0.000101178 6.74731e-05 -1.34614e-21)
(0.000810032 2.96138e-05 -9.54196e-19)
(0.00080494 1.62149e-05 7.86848e-19)
(0.000119955 4.05022e-05 -1.49794e-19)
(0.000981367 0.00014655 8.49967e-20)
(0.000842111 3.48561e-05 3.33425e-19)
(0.000824363 3.88158e-05 -2.93971e-19)
(0.00103853 0.000422873 0)
(0.000455859 0.000101254 6.24165e-19)
(0.000922829 0.00032586 2.09048e-20)
(0.00060134 0.000148086 0)
(0.000278354 0.000439923 4.0951e-19)
(0.000264435 0.000202356 -8.43877e-20)
(0.00111079 0.000387427 -7.81753e-19)
(0.000650297 0.000102603 -1.7921e-19)
(0.000828591 7.96754e-05 -7.45708e-21)
(0.000847437 1.94138e-05 9.38665e-20)
(3.78204e-05 -8.33548e-05 -1.98054e-18)
(0.000749145 0.000379236 2.19152e-19)
(0.000696522 7.17835e-05 2.30548e-20)
(0.000722197 0.000278479 1.63214e-23)
(0.000745168 0.000462819 -4.09513e-19)
(0.000857741 1.00939e-05 9.06661e-20)
(6.56436e-05 6.66985e-05 0)
(0.000666615 0.000426511 -4.65745e-20)
(0.000180309 7.5322e-05 0)
(0.000374593 0.000500471 -2.64753e-19)
(0.000314969 0.000150146 0)
(0.000692846 0.000205048 3.55071e-19)
(0.000666176 0.000259357 -4.37068e-20)
(7.77331e-05 9.22198e-05 6.18897e-19)
(0.000892679 9.78863e-05 -1.63674e-18)
(4.83703e-05 1.51781e-05 2.57079e-19)
(0.000905455 7.34579e-05 -1.68574e-18)
(0.000855116 9.18514e-05 1.63013e-19)
(0.000817533 3.95237e-05 1.92751e-18)
(0.000822849 3.14073e-05 -1.32695e-19)
(0.000753456 7.02647e-05 0)
(0.00080487 1.85787e-05 9.0067e-19)
(0.000979051 0.000242298 -4.26901e-19)
(0.000797815 0.000103645 -4.83522e-19)
(0.000786906 0.000239582 -8.80826e-20)
(0.000185891 -0.000206989 -2.07395e-18)
(0.000773915 8.49485e-05 8.87137e-19)
(0.000647178 0.000589582 0)
(4.03707e-05 -0.000123149 0)
(0.00123353 0.000479965 4.97135e-19)
(0.000516094 -5.0105e-05 -3.2708e-18)
(0.00135943 0.00042178 5.76202e-19)
(0.00125777 0.000722777 -6.38828e-20)
(0.000818327 3.59488e-05 -2.12652e-19)
(0.000846965 6.57825e-05 -1.4273e-18)
(0.000813145 2.67191e-05 1.58435e-18)
(0.000813156 1.82576e-05 9.76896e-20)
(0.000679995 0.000352781 -4.40227e-20)
(9.71453e-05 0.000107315 1.09768e-23)
(0.000773889 -2.28798e-05 2.64809e-19)
(0.000202128 -0.000249246 -7.33746e-19)
(0.000650621 0.000180481 0)
(0.000736059 5.2063e-05 9.89914e-20)
(0.000733607 1.08588e-05 -3.8063e-19)
(0.000402166 0.000157363 3.93208e-20)
(0.000816582 0.00051059 -1.65412e-19)
(0.00014205 5.7123e-05 4.68796e-25)
(0.000826285 0.000411779 0)
(0.000996056 0.000316013 4.15582e-20)
(0.000775224 -5.10111e-05 -6.15698e-19)
(0.000360824 8.4593e-05 4.97644e-19)
(0.000908122 0.000427143 0)
(4.1546e-05 2.42763e-05 1.33652e-19)
(0.000501904 0.000257532 2.13866e-19)
(0.000565667 -0.000176956 -7.09061e-19)
(7.33729e-05 -0.000177508 -1.05597e-18)
(0.000827411 4.45152e-05 -4.86457e-19)
(0.000752646 -4.8778e-05 -1.94676e-19)
(0.000556518 0.000727238 -1.17383e-18)
(0.00085853 4.3602e-05 -6.73079e-20)
(0.000534674 -3.8735e-06 1.283e-18)
(0.000726746 9.92473e-05 2.27672e-20)
(0.000552134 0.000200352 -1.6562e-19)
(1.92891e-05 -1.67054e-05 -8.75465e-20)
(0.000137798 -7.10628e-05 2.40487e-18)
(9.35061e-06 4.37216e-07 -1.94779e-19)
(0.000851105 0.000121202 3.6358e-19)
(0.000691893 0.000134245 0)
(0.000158721 -0.000126425 -1.04778e-18)
(0.000103845 -3.34891e-05 3.12628e-19)
(8.12192e-05 -4.4468e-05 1.0044e-23)
(0.000818786 0.000106983 -3.1912e-19)
(0.000138131 -3.11903e-05 0)
(0.000605283 0.000235432 0)
(0.000111352 0.000316874 -3.62724e-19)
(0.00087423 0.00010228 2.10711e-18)
(7.58667e-06 5.17384e-07 0)
(0.000894514 4.97981e-05 0)
(2.97475e-05 -2.36473e-05 0)
(0.000815128 4.91259e-05 -4.46603e-21)
(0.000777149 -1.79091e-05 0)
(0.00426111 0.0074083 8.07125e-20)
(0.00436306 0.00748875 1.43349e-19)
(0.000841719 -2.54646e-05 0)
(0.000804638 -2.3624e-05 8.11106e-19)
(0.000150572 0.000108546 1.49151e-19)
(0.000868406 6.58105e-05 8.08334e-19)
(0.000124424 8.63122e-05 2.34299e-20)
(0.000800663 -1.24489e-05 6.2346e-19)
(2.77981e-05 6.75479e-06 0)
(1.84508e-05 -9.88168e-06 -4.48278e-20)
(0.000912924 4.53847e-05 -4.86324e-19)
(1.93348e-05 -2.53172e-05 -6.69503e-19)
(0.000778499 0.000130023 -4.23041e-20)
(0.000169792 0.000146163 -1.88028e-19)
(0.000812553 3.30482e-05 0)
(0.00468252 0.0081535 9.00483e-22)
(0.000200531 0.000791642 3.33339e-19)
(8.43997e-05 -7.28392e-05 -9.14116e-19)
(4.2469e-05 -3.39372e-05 -1.16829e-18)
(0.000565208 1.2804e-05 1.8939e-20)
(0.000588957 0.000401209 0)
(0.000429344 0.000446252 -2.56238e-19)
(5.37148e-05 -6.59159e-05 1.18325e-18)
(0.000530798 -2.79956e-06 7.66976e-20)
(3.31564e-05 3.9286e-07 4.06909e-19)
(0.000736868 -3.53282e-05 1.17102e-18)
(0.000812585 3.18823e-05 -6.06152e-19)
(3.84794e-05 -5.22222e-05 1.70882e-18)
(0.00084045 -5.13663e-05 -6.64392e-24)
(0.000542467 5.55906e-06 -3.74244e-20)
(0.000883658 7.19317e-05 0)
(0.000848256 5.88275e-05 0)
(0.00591429 0.00724387 2.6004e-19)
(9.2837e-06 -3.2391e-06 -1.1955e-19)
(7.50363e-05 -0.000122633 7.72747e-19)
(0.000747697 0.000113753 -6.96107e-19)
(1.16663e-05 3.68837e-07 2.01477e-19)
(0.000670859 -3.44086e-05 -7.23444e-19)
(0.000764106 3.65756e-05 1.55729e-18)
(0.000723831 0.000155233 -3.55279e-19)
(0.00080712 -1.089e-05 3.60624e-19)
(5.42939e-05 -3.82582e-05 1.11548e-18)
(0.000802213 6.69454e-06 -3.2246e-19)
(0.000880426 3.14258e-05 0)
(0.000557831 0.000299499 4.20844e-20)
(0.000872761 4.6613e-05 -9.47467e-19)
(1.01356e-05 3.02733e-06 9.11275e-19)
(0.000865976 3.67489e-05 9.65854e-19)
(0.000866329 3.46962e-05 -9.63767e-19)
(0.000773824 5.56932e-06 -5.68888e-19)
(0.000567946 -8.90103e-05 -5.25383e-19)
(0.00433014 0.00745495 2.47043e-19)
(0.00422239 0.00752782 -2.53847e-19)
(0.00422004 0.00758569 2.6695e-19)
(0.00425672 0.00741202 1.98002e-19)
(0.000845164 -4.11973e-05 1.44203e-19)
(0.004477 0.0075154 0)
(0.00440462 0.00751947 -3.86815e-19)
(1.69328e-05 -1.767e-07 -9.978e-19)
(0.0041697 0.00746818 -6.33719e-20)
(0.00414523 0.00743145 -2.21542e-19)
(0.00602929 0.0106047 0)
(0.00654023 0.0111866 3.71551e-20)
(0.00600922 0.0105744 0)
(0.00655592 0.0112102 1.30977e-19)
(0.00599671 0.0105985 2.6968e-19)
(0.00659262 0.0112271 1.24741e-20)
(0.00593565 0.0106111 -7.76801e-19)
(0.0066229 0.0111461 8.16667e-21)
(0.00390346 0.00919689 -1.90793e-19)
(0.00418591 0.00748716 3.9006e-21)
(0.00423689 0.00755115 7.93676e-20)
(0.00414972 0.00743376 4.1209e-20)
(0.00090265 0.00019867 4.46527e-20)
(5.11311e-06 6.90516e-07 0)
(0.000737793 -8.94639e-05 0)
(0.00065693 5.92594e-05 0)
(0.00244816 0.0011197 4.23833e-21)
(0.000759358 -2.96555e-05 1.72496e-19)
(3.21202e-05 3.49291e-06 4.53856e-20)
(3.10288e-06 -1.78961e-05 1.65221e-18)
(0.00086906 -1.0383e-06 0)
(2.21659e-05 9.37456e-06 -1.91643e-19)
(0.000138964 0.00021088 0)
(7.72997e-06 -6.9396e-07 0)
(5.6773e-06 -6.64199e-07 0)
(0.000845329 0.000152524 1.13728e-20)
(0.000810944 -1.72346e-05 1.79546e-19)
(3.91355e-05 0.000248351 -6.68188e-24)
(0.00015583 0.000262314 -1.84127e-18)
(0.000618375 0.000324759 -8.56665e-20)
(0.000908321 0.00011794 6.01397e-19)
(0.000563657 -0.000119792 6.75307e-19)
(0.000358846 0.0011194 0)
(0.00048544 0.000575239 2.71439e-18)
(8.71178e-05 0.000132891 -1.80244e-18)
(1.07918e-05 -4.09811e-07 0)
(0.00082321 -6.48841e-05 3.64017e-20)
(1.23664e-05 2.84117e-05 1.64379e-18)
(0.000890496 3.6874e-05 2.70993e-19)
(-2.97097e-05 0.000104665 3.80747e-18)
(0.00092241 4.30996e-05 -2.6886e-19)
(0.00132837 0.000160098 7.47325e-19)
(2.47888e-05 -8.78805e-06 8.25341e-20)
(2.66644e-05 1.43925e-06 -8.58729e-19)
(5.05563e-05 0.000129179 0)
(0.00092585 9.29483e-05 5.98168e-19)
(0.000503454 0.000365029 2.37059e-19)
(0.000589949 1.69625e-05 -3.88865e-20)
(0.000795276 1.33354e-05 2.57077e-19)
(0.000723774 -0.000115782 0)
(0.006321 0.010895 -1.68083e-19)
(0.00637875 0.0109728 4.05896e-19)
(0.00616006 0.0107297 -6.18512e-19)
(0.00650124 0.0111318 -8.0997e-20)
(3.01658e-05 0.000107191 8.00196e-19)
(0.000934578 6.25931e-05 1.4406e-22)
(0.00641132 0.0110053 -3.86521e-19)
(0.00628198 0.0108447 5.48536e-19)
(0.00608017 0.0106715 -4.16831e-19)
(0.00652175 0.0111643 -6.8157e-20)
(7.79088e-05 0.000481651 -2.01765e-20)
(2.98066e-05 -0.000180027 -7.92722e-19)
(0.000622399 -1.80683e-05 -7.67185e-19)
(0.000737119 0.000219324 0)
(0.000800296 2.95121e-07 0)
(0.000191783 0.00038167 3.36187e-19)
(0.000606549 0.000511446 -5.41675e-19)
(3.21113e-06 -5.75686e-07 1.78316e-19)
(0.000201266 0.000464476 -7.38158e-19)
(0.00102771 0.000981212 -1.12661e-19)
(0.000762022 0.000167547 0)
(0.000802054 0.000184392 1.30965e-19)
(0.00634703 0.005884 1.13221e-18)
(0.000733885 0.00113025 8.26437e-20)
(3.30796e-05 3.16218e-05 -7.44371e-20)
(0.00080911 1.1937e-05 0)
(0.000867187 1.93173e-05 -3.56766e-20)
(2.54946e-05 1.4111e-06 -1.96664e-19)
(2.243e-05 2.68227e-06 1.92923e-19)
(0.000835207 1.02383e-05 5.3697e-19)
(0.000994933 0.000115616 6.57793e-19)
(0.000523348 5.18043e-05 0)
(0.000219731 -0.000242623 -4.00084e-19)
(0.000924551 0.000143835 3.89407e-19)
(-2.10049e-06 -3.64267e-05 2.02924e-19)
(0.00145593 0.000447424 -2.5796e-18)
(0.000545239 -1.68552e-05 0)
(0.000807364 0.000141821 3.75305e-19)
(9.74446e-05 0.00038085 0)
(0.00118935 0.00816123 4.62038e-19)
(0.000500996 0.000495498 -1.22413e-18)
(0.000542455 0.00101858 -1.83698e-19)
(0.00089326 1.03658e-05 -1.45998e-19)
(9.29437e-06 1.99625e-05 0)
(0.000968749 7.95212e-05 6.11313e-19)
(0.00410583 0.00739471 8.14464e-20)
(0.00417054 0.00747266 4.7311e-20)
(0.00450074 0.00751816 4.54127e-19)
(0.00444607 0.00754378 -3.29393e-19)
(0.00647516 0.0111088 8.10742e-20)
(0.00391466 0.0071458 -9.47765e-22)
(0.0055071 0.0078008 -5.64798e-19)
(0.00409766 0.0073713 5.21894e-21)
(0.00518866 0.00786072 5.11734e-19)
(0.00407941 0.00733964 -4.87443e-20)
(0.0049541 0.00772028 0)
(0.00408459 0.00736389 -8.56867e-20)
(0.00474302 0.00759116 4.92565e-19)
(0.00409784 0.0073755 8.75359e-20)
(0.00457579 0.00753072 0)
(0.00428463 0.0074225 1.39765e-19)
(0.00423824 0.00759724 5.80685e-19)
(0.00446849 0.0075293 -5.55483e-19)
(0.00438882 0.00750698 3.71419e-19)
(0.00422697 0.00752373 2.88136e-19)
(0.0064305 0.0110421 -4.97744e-21)
(0.00411727 0.00740081 3.11665e-20)
(0.00645864 0.0110719 0)
(1.80608e-05 3.66562e-06 -1.89781e-19)
(0.00200328 0.00654793 2.28144e-19)
(0.000838521 -6.35461e-05 1.09533e-19)
(0.000849856 -3.13596e-06 0)
(3.24899e-07 6.62226e-08 -3.98942e-19)
(-4.22739e-05 -5.16677e-05 6.91013e-19)
(2.21999e-05 4.87607e-05 2.08821e-18)
(0.00084556 0.000191092 -9.00275e-20)
(0.000801816 8.36903e-06 7.06094e-19)
(-4.55096e-07 6.33937e-07 3.09857e-19)
(1.00832e-05 -2.4079e-05 -1.84479e-18)
(0.000763371 2.64399e-05 1.63086e-19)
(0.000877803 0.000127274 -3.07849e-20)
(0.000801159 -6.48521e-06 1.48068e-19)
(0.000442082 0.000677926 0)
(-1.20571e-05 -0.00012186 1.15078e-18)
(0.000880653 -5.58124e-06 1.52469e-19)
(1.66231e-05 1.92568e-05 0)
(0.00012156 0.000550312 -6.31079e-19)
(0.000616453 0.000581357 1.31721e-18)
(0.000339392 0.000758073 0)
(0.000802153 -1.34316e-05 0)
(0.000801883 3.18483e-06 1.17679e-18)
(1.3561e-05 4.14467e-05 -3.51359e-18)
(1.22917e-05 4.71107e-06 3.73468e-19)
(0.000116455 0.000131397 0)
(2.78631e-05 -3.66692e-05 0)
(5.71415e-05 0.000102045 2.0092e-19)
(0.000946137 0.00019041 3.50276e-19)
(0.000802501 1.59258e-05 -1.37751e-18)
(1.92627e-05 2.72549e-05 0)
(0.00039345 9.6904e-07 -6.0465e-20)
(0.000798897 3.48473e-05 -1.56289e-19)
(0.000853891 5.45572e-05 1.06527e-18)
(0.000249954 0.000542961 6.3203e-19)
(0.000887701 0.000159104 0)
(1.01016e-05 -1.67878e-05 5.38395e-19)
(7.17218e-07 -5.67756e-07 -3.19829e-19)
(0.000929341 3.6247e-05 0)
(0.00105071 0.00227258 0)
(0.000891323 5.34131e-06 0)
(0.00101128 0.000209956 4.26982e-19)
(0.000819282 -3.72719e-05 -2.84153e-19)
(0.000948263 0.000117767 -6.84464e-19)
(0.000801298 3.84007e-06 0)
(3.88561e-05 5.95197e-05 -1.71498e-19)
(0.000174774 0.000319222 1.08078e-18)
(0.000801574 1.43161e-05 -2.58223e-23)
(0.00111455 0.000208228 -6.68313e-19)
(0.00108668 0.000130353 0)
(1.4847e-06 2.63968e-06 2.50923e-19)
(1.16508e-05 -1.05427e-05 -1.94233e-19)
(0.000546006 5.14383e-05 6.94756e-21)
(-1.55245e-05 -4.66866e-05 0)
(0.00108203 0.000258194 9.495e-19)
(0.0050289 0.0097483 -2.82832e-19)
(0.00312175 0.00961646 1.27234e-18)
(1.34724e-06 -8.314e-05 -1.91246e-19)
(2.5489e-05 -6.65994e-05 1.85858e-18)
(0.00119469 0.000261891 1.67275e-19)
(0.00133247 0.00107478 2.34014e-19)
(0.000810465 4.29541e-06 -7.37023e-19)
(0.00020343 0.000946723 -2.38177e-19)
(0.000819944 0.000946819 -2.18513e-19)
(0.000800447 -1.83123e-06 0)
(8.12546e-05 0.000603403 0)
(9.39323e-05 0.000272601 -3.38345e-23)
(0.000721496 -4.87923e-05 -1.67004e-23)
(0.000828555 6.93127e-05 1.52543e-19)
(0.00263427 0.0020691 -1.23113e-18)
(0.00176108 0.00923801 -1.17181e-19)
(0.000833301 7.72213e-05 4.91814e-19)
(0.00631556 0.00405435 -1.76263e-19)
(0.0067208 0.0115568 -1.36632e-20)
(0.00473392 0.00784353 4.93631e-21)
(0.000806729 1.39248e-05 -2.18743e-18)
(0.000845417 -1.75704e-06 8.61762e-24)
(3.46345e-06 -4.07085e-06 -3.47871e-19)
(4.40862e-05 7.89659e-05 -3.49142e-19)
(6.01547e-05 0.000254384 8.75062e-19)
(7.58836e-06 1.21278e-05 4.90207e-19)
(8.99357e-05 0.000217793 3.69637e-19)
(0.000818124 1.31948e-05 0)
(0.00534831 0.00949241 1.94878e-20)
(0.00155126 0.000641961 -2.61107e-20)
(0.000818813 4.19033e-05 3.60029e-19)
(4.6147e-06 -6.49522e-05 0)
(0.00184956 0.000749855 5.45848e-19)
(6.06172e-06 4.86789e-06 -2.70045e-19)
(2.86676e-05 2.29678e-05 9.71427e-20)
(0.00133718 0.00139926 6.36494e-19)
(0.000740698 4.97963e-05 1.83031e-19)
(3.63049e-07 -2.96676e-07 -1.70131e-19)
(0.00206697 0.00156412 -1.05552e-18)
(0.000127055 0.0001663 -8.18487e-19)
(0.00392004 0.00848925 -1.09075e-18)
(2.14709e-06 6.63166e-07 8.81073e-20)
(8.42554e-05 -1.56317e-05 -1.25807e-18)
(2.72573e-05 -5.06006e-05 4.05471e-20)
(0.00153566 0.000989808 0)
(0.00104546 0.000144406 -3.97479e-22)
(0.000458557 0.000843999 -4.01959e-20)
(0.000803771 2.74913e-05 -2.33982e-19)
(8.67804e-05 0.000172928 7.35809e-19)
(1.23922e-05 -4.75737e-05 4.0382e-19)
(1.48383e-05 1.17455e-05 -9.4672e-20)
(2.68428e-05 8.03127e-05 -3.20166e-19)
(0.000215436 -0.000131127 -5.45729e-19)
(0.00325254 0.00346963 2.88249e-21)
)
;

boundaryField
{
    back
    {
        type            empty;
    }
    ingreso
    {
        type            fixedValue;
        value           uniform (0.0008 0 0);
    }
    salida
    {
        type            zeroGradient;
    }
    front
    {
        type            empty;
    }
    defaultFaces
    {
        type            noSlip;
    }
}


// ************************************************************************* //
