/*--------------------------------*- C++ -*----------------------------------*\
  =========                 |
  \\      /  F ield         | OpenFOAM: The Open Source CFD Toolbox
   \\    /   O peration     | Website:  https://openfoam.org
    \\  /    A nd           | Version:  7
     \\/     M anipulation  |
\*---------------------------------------------------------------------------*/
FoamFile
{
    version     2.0;
    format      ascii;
    class       surfaceScalarField;
    location    "88";
    object      phi;
}
// * * * * * * * * * * * * * * * * * * * * * * * * * * * * * * * * * * * * * //

dimensions      [0 3 -1 0 0 0 0];

internalField   nonuniform List<scalar> 
1111
(
6.88055e-09
1.30197e-08
-1.60169e-08
-3.88337e-09
6.85058e-09
-1.18123e-08
1.18423e-08
-1.47512e-08
5.62144e-09
8.94081e-09
1.88945e-10
8.11744e-10
-9.34034e-10
-1.43521e-08
1.44744e-08
-1.43049e-08
1.40751e-08
1.04155e-09
-1.63558e-09
1.4912e-08
2.15215e-09
-3.06148e-09
9.55992e-09
-9.79326e-09
3.29483e-09
-6.71749e-09
-1.26149e-08
1.26003e-08
6.73211e-09
-5.03086e-08
-2.60411e-08
7.63497e-08
-8.12969e-09
7.69288e-09
7.28739e-09
3.35987e-09
3.62402e-10
-3.44149e-09
-2.80781e-10
1.58478e-08
-1.6214e-08
-2.31996e-08
2.35658e-08
-9.66241e-09
-7.89474e-09
8.8011e-09
8.75605e-09
-3.55495e-08
1.76954e-08
-3.23139e-08
5.01681e-08
9.50407e-09
-1.96353e-09
-1.4258e-08
-7.19106e-10
1.65233e-09
-3.13759e-09
2.20436e-09
-3.91315e-09
1.33425e-08
1.96531e-09
-1.13946e-08
8.81723e-09
-2.6287e-09
-1.50479e-08
8.85935e-09
3.73383e-08
-3.00122e-08
-7.32608e-09
-1.94527e-08
3.75519e-10
1.72387e-08
1.83853e-09
-1.03197e-09
4.22419e-09
-1.78552e-08
1.4663e-08
-6.12225e-08
-3.96239e-09
6.51849e-08
1.41352e-10
-1.1766e-09
-3.36098e-10
1.37135e-09
-1.70658e-09
-1.36303e-08
-9.93518e-11
-2.52047e-10
1.96867e-10
1.54532e-10
-1.03425e-08
-8.47537e-09
1.29975e-08
5.82036e-09
6.84787e-10
-2.12457e-09
-8.30858e-09
9.74837e-09
8.51422e-09
8.03678e-10
-9.54624e-09
2.28344e-10
-2.87689e-09
-7.97574e-09
1.10495e-08
-1.96903e-10
1.14049e-08
-9.49025e-10
-1.63863e-09
-8.43187e-10
8.43093e-10
5.41155e-12
-5.31807e-12
-1.18985e-10
7.15478e-10
2.51734e-10
-8.48227e-10
-4.58858e-10
-3.93122e-11
4.91541e-10
6.62962e-12
-3.49852e-11
-8.19087e-10
1.11535e-10
7.42537e-10
-9.61338e-11
-7.82038e-10
9.4202e-10
-1.84279e-08
-1.96678e-09
-3.77515e-10
4.17343e-11
-1.23077e-10
1.33873e-08
-1.32415e-08
4.07847e-09
-3.63952e-10
5.61429e-10
3.34969e-10
-5.32446e-10
-7.51609e-11
-1.55343e-09
1.27808e-09
3.50513e-10
-2.01633e-09
1.05147e-08
-1.15598e-08
-2.70038e-10
-1.56369e-10
4.88912e-11
-8.75632e-09
1.04269e-08
-9.8003e-09
1.22323e-08
-1.71481e-08
4.63162e-09
2.84215e-10
5.72928e-11
-1.55671e-10
-1.71659e-10
1.7461e-10
7.79237e-10
-1.10754e-10
-5.95327e-08
7.423e-08
-1.46974e-08
1.0318e-09
-2.4664e-10
-1.15683e-09
3.71669e-10
1.14881e-09
1.03117e-08
-1.37164e-08
2.25596e-09
-1.69744e-09
7.66378e-09
-8.9267e-09
2.96036e-09
-6.69174e-09
5.64349e-09
5.65112e-09
-4.60288e-09
-7.60639e-09
-1.73995e-09
1.76429e-09
7.58205e-09
-1.80813e-10
-9.09179e-08
9.13035e-08
-2.04789e-10
-2.55814e-10
-8.97527e-08
9.01625e-08
-1.53899e-10
8.30791e-08
-1.49349e-09
1.10036e-10
-8.16957e-08
-2.90436e-09
-4.41938e-10
6.55982e-10
8.34112e-10
-4.58298e-10
3.93123e-09
-1.15294e-09
3.44809e-09
-6.22638e-09
-9.57896e-10
8.85866e-10
-1.49429e-08
6.59177e-09
9.74623e-09
1.0464e-09
-1.05192e-08
-2.73458e-10
-6.12623e-09
1.34106e-08
1.07038e-09
-8.35472e-09
1.43668e-08
-4.49203e-09
3.70608e-09
-1.35808e-08
1.54012e-08
1.68262e-09
-1.65507e-09
-1.91619e-10
-2.00632e-08
-7.42687e-09
2.76817e-08
1.43225e-08
-8.71203e-09
-1.93441e-09
7.95143e-09
-1.21432e-08
1.85635e-13
7.01344e-11
-1.22715e-09
-3.62196e-08
-2.33131e-08
8.28726e-09
2.57172e-10
3.68785e-09
-7.01141e-09
1.10826e-08
6.35574e-09
-5.91479e-10
3.16248e-10
4.76877e-10
-2.01646e-10
5.7648e-09
-4.76995e-09
3.65209e-09
-4.64694e-09
-4.52674e-10
-6.25536e-10
2.59122e-10
6.52413e-10
-5.8019e-10
-9.95997e-12
-8.24856e-10
7.1583e-10
-1.80887e-08
2.42917e-09
1.55677e-09
1.41027e-08
2.20683e-10
-6.89871e-10
-1.22291e-10
-4.11969e-09
-1.51031e-08
1.13415e-09
5.61182e-09
1.20506e-08
-5.22636e-09
-1.2436e-08
1.6427e-08
6.92782e-10
-1.58906e-08
-1.22915e-09
-6.72987e-10
4.49925e-10
5.3931e-10
-3.98234e-10
1.99233e-10
1.99001e-10
-7.39536e-09
-3.57547e-09
4.27909e-09
-2.24639e-10
3.46166e-10
-1.21527e-10
1.16429e-09
-1.56265e-08
-8.16725e-10
9.79024e-09
-1.09898e-08
-9.52299e-10
-4.08194e-10
1.29023e-08
4.41375e-09
-4.16063e-09
-1.31554e-08
9.98806e-11
7.14282e-09
-7.90873e-09
6.40941e-09
-1.6779e-09
-8.92948e-09
8.16046e-09
2.44692e-09
-1.88408e-09
6.67167e-10
-1.38862e-08
-1.24136e-10
-1.00503e-10
1.75241e-10
7.66965e-10
-8.5486e-09
7.49486e-10
1.72909e-08
-1.61337e-09
-1.22905e-08
1.36479e-08
-1.3574e-09
1.22089e-08
1.39569e-08
-1.551e-08
-1.06557e-08
-5.40576e-10
9.90818e-10
-4.50242e-10
4.0445e-10
-3.39203e-10
-6.52476e-11
4.14364e-10
-1.47142e-10
-2.67222e-10
1.39578e-09
-1.13217e-09
-2.63611e-10
-1.06255e-08
8.26432e-10
9.79907e-09
2.03501e-09
-6.39231e-10
8.96266e-09
-1.53891e-08
7.52353e-09
-9.04572e-09
5.70481e-11
3.70212e-09
-3.99303e-10
-2.39741e-09
2.45446e-09
-6.58451e-09
7.91733e-09
-1.33282e-09
-5.64429e-10
4.24421e-09
2.51448e-10
1.7271e-08
-1.44828e-08
-1.63941e-09
-5.99965e-09
5.38495e-09
-5.38235e-10
-1.9441e-10
5.89973e-09
-5.89476e-09
-4.96888e-12
6.90277e-09
4.51315e-09
-3.74335e-12
-1.59982e-08
1.04619e-08
1.77452e-08
5.76886e-09
8.27673e-09
8.20206e-09
-6.84855e-09
1.34157e-09
-1.19671e-08
4.42804e-10
1.22132e-09
-1.29704e-08
2.87924e-09
-4.24775e-10
1.1541e-08
-1.08483e-08
-2.47601e-10
-8.00831e-10
-1.38045e-08
7.60328e-09
7.44458e-10
-7.23919e-12
-8.89995e-09
5.04397e-09
-3.02038e-08
-1.25088e-08
-2.78642e-09
1.49073e-09
1.40846e-08
1.10113e-08
-1.07731e-08
-1.43229e-08
1.54297e-08
-3.12533e-09
-1.23044e-08
1.62043e-09
3.96713e-09
-1.08347e-09
-9.03663e-10
-8.6759e-10
1.16538e-09
6.05872e-10
-2.35426e-10
3.56143e-10
3.56161e-10
6.21389e-08
-6.21645e-08
2.56184e-11
6.20596e-08
-6.23634e-08
3.03846e-10
8.37092e-10
6.47351e-08
-6.55618e-08
8.26628e-10
6.41276e-08
6.07483e-10
-2.24499e-10
-6.6507e-08
9.45281e-10
-6.20527e-08
6.19182e-08
1.3453e-10
1.31553e-09
-6.78226e-08
-6.22126e-08
1.59851e-10
1.25498e-08
-7.35098e-10
1.34763e-09
-3.70037e-09
3.08784e-09
3.26934e-10
-1.18921e-09
9.41529e-10
-5.94462e-10
1.39491e-09
-1.6334e-09
8.32949e-10
1.412e-09
-1.51868e-09
1.76812e-10
-5.61671e-11
-3.42279e-09
2.78771e-09
-2.01894e-09
2.65401e-09
-4.90704e-10
-2.75202e-09
2.50763e-09
-3.58662e-09
-5.78622e-09
5.88853e-10
-6.22331e-10
1.22114e-09
1.1153e-09
-6.4946e-09
7.93165e-09
3.0761e-09
1.97853e-08
-4.35557e-09
-7.1149e-10
2.86719e-10
1.01362e-09
-1.00931e-08
-2.61265e-08
5.32913e-09
-4.29298e-09
-3.16666e-09
2.1305e-09
1.05152e-10
2.31903e-11
3.63198e-10
-2.58595e-09
3.35105e-09
8.92722e-09
7.50326e-10
-2.65193e-10
2.1067e-09
-2.33221e-09
1.89197e-09
1.47363e-08
1.33052e-08
-2.69437e-08
3.26985e-08
6.3412e-09
-2.28293e-08
-1.04557e-08
1.8473e-08
-1.79634e-08
1.05017e-08
-9.04983e-11
-1.83442e-10
-1.24474e-09
-1.72178e-09
-2.93893e-09
3.57215e-09
1.50717e-08
-6.08575e-10
-1.3796e-08
-6.01111e-10
-2.38851e-09
2.37602e-10
1.54684e-08
1.77409e-08
1.37048e-08
7.22942e-10
-1.67761e-09
-1.27501e-08
-1.56525e-09
5.98626e-09
1.25278e-08
-5.16575e-10
-1.06629e-09
-3.61714e-09
2.77711e-09
3.62775e-09
2.48663e-09
1.44475e-08
4.24447e-09
-1.42782e-08
1.79717e-08
-1.76585e-09
2.51904e-09
-3.41375e-09
1.89788e-09
-4.8969e-09
1.29479e-08
-1.19641e-08
-1.40341e-08
3.44973e-10
8.79223e-09
-1.81512e-09
1.51662e-09
1.51965e-09
-8.65893e-09
7.06575e-10
-4.55648e-09
-6.01366e-09
1.22e-08
-1.48453e-08
1.12453e-09
1.6698e-09
-2.20927e-09
1.67605e-08
-1.6221e-08
-1.07035e-09
1.41666e-08
3.04995e-09
-4.40762e-09
-1.40314e-08
7.53293e-09
-1.73489e-08
-8.14744e-09
6.78162e-09
5.86712e-09
1.45666e-08
-9.96738e-09
3.03928e-09
9.37502e-09
9.85845e-09
3.84206e-09
-4.18585e-09
2.17115e-08
-1.91553e-08
4.97667e-09
-1.05202e-08
2.17326e-09
5.64623e-09
1.38822e-08
-2.79193e-10
1.27873e-08
-1.35785e-08
-1.90289e-09
1.86669e-09
-8.72686e-10
9.08882e-10
1.10232e-08
-6.37628e-09
7.4037e-09
-1.09172e-08
1.44337e-09
-4.74657e-09
1.14598e-08
-1.19396e-08
-7.56491e-09
9.18711e-09
9.40097e-09
1.28945e-08
6.62005e-10
-1.38357e-08
1.48855e-09
7.92131e-10
-1.11031e-08
-6.72306e-09
1.02612e-08
-1.44706e-09
2.51596e-09
-8.97341e-09
4.79776e-09
-5.25343e-09
1.15533e-08
-3.48593e-09
-1.17609e-08
3.6935e-09
-4.48052e-09
1.12873e-08
1.87702e-09
1.12814e-09
-5.03443e-09
-1.7765e-08
1.04721e-08
1.23273e-08
7.54502e-10
-1.09927e-08
-9.98944e-09
1.59477e-08
1.25651e-08
2.85722e-09
-9.7761e-09
-1.33173e-08
-3.1929e-10
-1.27537e-08
1.63712e-10
-7.64949e-10
1.16508e-08
1.25331e-08
-8.23508e-09
1.66206e-08
-1.60004e-08
3.62424e-09
-4.70425e-10
1.76334e-09
1.28098e-08
-3.91719e-09
-1.26795e-08
-5.08076e-09
1.68916e-09
4.61292e-09
1.22431e-08
-7.25169e-09
9.2882e-10
-1.61062e-09
7.65832e-10
-1.0581e-09
5.86939e-09
2.63438e-08
-1.42044e-10
-9.94825e-09
1.00903e-08
2.85428e-08
-2.22979e-08
2.20832e-08
1.9729e-08
-1.27148e-08
-2.68113e-09
1.50819e-08
1.91848e-10
-1.21437e-08
-4.18188e-10
-6.01952e-09
-1.8705e-09
2.22385e-09
1.52367e-09
-3.71438e-10
-1.10801e-08
1.14778e-08
-2.62619e-11
3.10233e-09
-5.22273e-09
-1.10476e-08
1.0601e-08
-9.04312e-10
-1.07778e-08
-1.89549e-10
-1.12339e-08
-2.58006e-09
-1.20279e-08
2.18509e-09
7.90368e-09
5.13886e-09
-3.35887e-10
-1.17992e-08
1.17636e-08
5.82095e-10
-8.79929e-09
5.16964e-09
-1.46999e-09
2.3078e-09
-2.22926e-09
-1.30504e-08
-1.26747e-08
1.21967e-08
-1.02151e-08
-1.57909e-08
1.00078e-08
9.26327e-09
8.42911e-10
2.66366e-09
-1.26119e-08
1.14232e-08
1.67092e-09
3.92679e-09
2.98677e-10
-5.07474e-10
-2.43877e-10
-4.13314e-09
2.55781e-09
-8.1318e-10
1.92977e-10
-2.26943e-10
3.39652e-11
-2.67182e-09
1.30225e-08
2.21446e-09
2.54888e-09
-5.84556e-11
-1.44202e-09
-4.63199e-10
-2.35299e-09
-3.33776e-10
1.29738e-08
1.00472e-08
-3.38826e-10
6.84203e-09
-1.23386e-09
-5.26934e-09
-9.79293e-09
-5.11482e-09
1.4738e-10
4.55974e-11
4.87708e-09
1.32038e-09
-1.71901e-08
-3.6627e-10
-7.75841e-10
-2.76867e-09
1.0218e-09
3.00872e-09
6.19403e-08
-8.60415e-11
-6.18543e-08
6.23634e-08
1.8892e-10
-6.25523e-08
-1.41361e-08
-2.0062e-10
1.44954e-08
-1.58682e-10
3.05182e-09
-1.83424e-09
2.55009e-09
1.80011e-09
-4.48716e-09
-3.35435e-10
-5.30021e-10
4.30042e-10
-1.01668e-10
4.44145e-10
-3.01836e-10
1.96426e-08
1.07186e-09
-1.58374e-08
-1.58267e-10
-1.93558e-09
1.24772e-08
2.26821e-09
1.79035e-09
5.34068e-09
-2.10113e-09
-7.72336e-08
-2.41775e-08
-4.91166e-09
1.58324e-08
2.42173e-09
-1.50996e-10
-3.01517e-09
-1.11071e-09
3.63724e-10
-3.19307e-10
-1.01726e-08
-3.53645e-10
1.05262e-08
-1.08368e-08
-6.6019e-09
1.07156e-08
-9.45533e-09
8.75865e-09
1.80397e-10
1.5353e-09
9.68911e-09
-9.59845e-09
-9.06592e-11
6.08955e-10
8.52036e-11
1.06364e-08
6.51861e-10
-8.12886e-10
-1.17428e-10
-1.42437e-08
-4.83487e-10
-1.37839e-08
1.26358e-08
-1.18523e-08
-6.60337e-08
6.49881e-08
1.04562e-09
2.60491e-10
-2.37301e-10
1.19785e-08
-2.36499e-10
9.55595e-12
-2.04749e-09
2.76643e-09
-3.42989e-09
-1.34765e-08
-1.62649e-09
2.57253e-09
-4.72965e-09
-1.40665e-08
1.606e-09
5.56904e-09
9.64782e-09
-9.00777e-09
-2.61388e-10
2.48897e-11
-9.32507e-09
-1.33077e-08
1.50834e-10
-6.27e-08
2.36334e-10
6.24637e-08
6.95128e-10
6.34325e-08
-2.24221e-10
-1.57261e-09
-1.44861e-08
1.07994e-10
-6.33992e-08
6.32912e-08
1.83388e-10
-6.29405e-08
6.27571e-08
3.62301e-10
6.1803e-08
1.50457e-10
-6.19534e-08
6.1634e-08
1.68982e-10
-8.78925e-08
8.85019e-08
-1.95032e-12
9.33962e-08
-9.31029e-08
-2.67649e-10
-8.66313e-08
-4.34573e-10
9.33551e-08
-1.83357e-10
-8.49174e-08
-7.68684e-10
9.34858e-08
1.73081e-10
-5.22714e-10
1.961e-09
9.23619e-08
-6.93161e-08
6.21439e-08
-6.23247e-08
-6.29559e-08
6.14913e-08
1.42643e-10
-3.09938e-09
2.93544e-09
-1.41143e-08
5.14011e-11
9.59788e-11
1.42566e-09
8.75648e-09
-1.13852e-08
3.82951e-08
-3.45217e-08
-1.67437e-08
1.3793e-08
-4.33567e-11
-2.14564e-10
1.61518e-10
6.70565e-10
-1.30218e-10
3.24834e-10
4.48543e-09
1.03548e-09
-3.62303e-09
-1.88937e-10
2.30671e-10
-1.40046e-10
-2.55839e-09
1.31704e-08
2.41045e-09
-1.44365e-08
-2.62363e-09
-3.35435e-09
5.57063e-09
1.0453e-09
-2.65652e-09
1.42853e-08
-1.15668e-09
-2.06257e-09
2.35959e-09
-8.12743e-09
-1.90574e-08
-1.34569e-08
7.96668e-09
5.83519e-09
-2.30685e-10
-5.569e-10
3.01144e-09
1.44748e-08
2.26312e-09
-1.82591e-09
-3.93784e-10
4.43727e-10
-2.44354e-10
1.59657e-08
-5.71186e-10
-1.57481e-08
-3.68058e-10
-4.98189e-10
3.22015e-10
-2.46984e-10
3.46331e-09
-1.64285e-08
4.72394e-10
-1.5406e-09
-2.13157e-09
-2.32775e-09
1.56189e-08
-9.05956e-08
-1.38968e-10
9.16829e-08
-1.90499e-10
-8.91681e-08
-4.76655e-10
9.3106e-08
-2.75496e-10
-9.29165e-08
-5.5378e-10
-1.62605e-09
1.67436e-08
9.19842e-08
-1.96781e-10
2.89712e-11
-2.21198e-10
9.88263e-09
2.52541e-09
-7.55447e-09
-1.21633e-08
-5.67825e-09
8.42797e-09
1.47153e-09
-6.8234e-09
-6.01737e-09
9.02689e-09
-8.27529e-11
1.01455e-08
1.94938e-08
-1.7967e-08
3.0803e-09
-1.26836e-08
3.08439e-09
-6.99774e-08
3.94363e-09
-2.05719e-08
-1.30834e-08
-4.93348e-10
-5.95055e-09
-1.5283e-08
9.08986e-09
-1.51597e-08
4.38593e-10
3.7089e-10
-1.86882e-09
-1.6587e-08
1.70276e-08
7.36552e-09
-7.80746e-09
-4.78817e-09
1.52742e-08
-1.68127e-09
6.92382e-10
-9.93403e-10
1.64804e-10
1.19429e-08
3.32085e-09
7.09092e-08
-1.82375e-08
7.5496e-10
-1.49863e-08
-2.37636e-10
-2.77674e-10
-9.03207e-11
6.09534e-08
-6.12289e-08
-6.33702e-08
-6.31373e-08
-6.39065e-11
-2.62425e-10
-9.25902e-08
-6.04543e-08
6.24153e-08
6.50982e-08
-6.02812e-08
6.45754e-08
-6.04645e-08
6.38068e-08
-6.07322e-08
6.33722e-08
9.2313e-08
2.8627e-10
-6.37235e-09
7.51133e-08
-6.54201e-08
4.22084e-11
-4.22084e-11
3.83707e-10
-3.28453e-10
1.54849e-08
-3.00024e-11
3.00024e-11
3.43e-10
1.53272e-09
1.38961e-08
1.33851e-08
-2.7341e-09
3.72623e-09
6.54383e-09
1.85101e-09
3.74676e-10
-2.5617e-10
-2.97908e-09
1.458e-08
1.48466e-08
-4.2841e-09
1.18182e-08
1.87542e-10
1.50129e-10
2.76688e-09
-8.43414e-10
-1.55721e-09
-5.83903e-09
-2.05165e-10
-4.02123e-10
1.53056e-08
2.60641e-10
6.98782e-11
1.45899e-08
-2.61641e-08
1.77404e-08
2.64428e-09
1.2834e-09
2.49449e-09
-3.724e-09
1.9288e-08
-1.80585e-08
-8.19276e-11
2.19429e-10
-1.44012e-09
-7.92099e-08
-7.07562e-08
1.32884e-09
-5.51952e-10
6.47947e-10
2.29779e-08
1.85992e-08
-6.35032e-09
7.70019e-11
-4.30104e-09
-2.5109e-09
2.99494e-08
1.52986e-10
1.48184e-08
7.35812e-08
5.27505e-11
5.18317e-10
-1.59385e-10
-2.18793e-10
-3.66486e-09
2.42451e-08
-1.48673e-08
9.96318e-10
-1.41661e-08
-5.37703e-11
2.03795e-08
-2.86781e-08
9.34209e-10
1.99154e-09
-3.12895e-10
)
;

boundaryField
{
    back
    {
        type            empty;
        value           nonuniform 0();
    }
    ingreso
    {
        type            calculated;
        value           nonuniform List<scalar> 
14
(
-1.54286e-08
-1.54288e-08
-1.54288e-08
-1.54288e-08
-1.54286e-08
-1.54283e-08
-1.54288e-08
-1.54288e-08
-1.54286e-08
-1.54286e-08
-1.54288e-08
-1.5428e-08
-1.5428e-08
-1.54286e-08
)
;
    }
    salida
    {
        type            calculated;
        value           nonuniform List<scalar> 2(1.01411e-07 1.14588e-07);
    }
    front
    {
        type            empty;
        value           nonuniform 0();
    }
    defaultFaces
    {
        type            calculated;
        value           uniform 0;
    }
}


// ************************************************************************* //
