# Residuals   
# Time        	p             	Ux            	Uy            
5.7           	N/A	N/A
5.70115       	2.748016e-02	1.676310e-04	2.609748e-04
5.7023        	2.835141e-02	2.344407e-04	2.370742e-04
5.70345       	3.934098e-03	1.560346e-04	1.198181e-04
5.7046        	1.706964e-03	1.582441e-04	1.214276e-04
5.70575       	1.452557e-03	1.597899e-04	1.222077e-04
5.7069        	1.446170e-03	1.602818e-04	1.222828e-04
5.70805       	1.406585e-03	1.603764e-04	1.223291e-04
5.7092        	1.464130e-03	1.604102e-04	1.224491e-04
5.71034       	1.454702e-03	1.604676e-04	1.225176e-04
5.71149       	1.477810e-03	1.603968e-04	1.225331e-04
5.71264       	1.439025e-03	1.603533e-04	1.225729e-04
5.71379       	1.582301e-03	1.604494e-04	1.226008e-04
5.71494       	1.439186e-03	1.606472e-04	1.225938e-04
5.71609       	1.465453e-03	1.604397e-04	1.224792e-04
5.71724       	1.423687e-03	1.603937e-04	1.225443e-04
5.71839       	1.503764e-03	1.602963e-04	1.224953e-04
5.71954       	1.550984e-03	1.604026e-04	1.223917e-04
5.72069       	1.684757e-03	1.605085e-04	1.223978e-04
5.72184       	1.702401e-03	1.606468e-04	1.224303e-04
5.72299       	1.553292e-03	1.606112e-04	1.225175e-04
5.72414       	1.499341e-03	1.605629e-04	1.224254e-04
5.72529       	1.502729e-03	1.604274e-04	1.223294e-04
5.72644       	1.552398e-03	1.603697e-04	1.224266e-04
5.72759       	1.541140e-03	1.604180e-04	1.225260e-04
5.72874       	1.531626e-03	1.602778e-04	1.225549e-04
5.72989       	1.534219e-03	1.601960e-04	1.225949e-04
5.73103       	1.483461e-03	1.602196e-04	1.225536e-04
5.73218       	1.527393e-03	1.601632e-04	1.226401e-04
5.73333       	1.570899e-03	1.600873e-04	1.225884e-04
5.73448       	1.558561e-03	1.599910e-04	1.226652e-04
5.73563       	1.667766e-03	1.600093e-04	1.229365e-04
5.73678       	1.769544e-03	1.600135e-04	1.229765e-04
5.73793       	1.647300e-03	1.601256e-04	1.229024e-04
5.73908       	1.578789e-03	1.598128e-04	1.228855e-04
5.74023       	1.541649e-03	1.595872e-04	1.227880e-04
5.74138       	1.530366e-03	1.593253e-04	1.227896e-04
5.74253       	1.728735e-03	1.591562e-04	1.226517e-04
5.74368       	1.517920e-03	1.590798e-04	1.226850e-04
5.74483       	1.619895e-03	1.589257e-04	1.226519e-04
5.74598       	1.752906e-03	1.587086e-04	1.227132e-04
5.74713       	1.588376e-03	1.586451e-04	1.228497e-04
5.74828       	1.534134e-03	1.586572e-04	1.229073e-04
5.74943       	1.574338e-03	1.584988e-04	1.228033e-04
5.75057       	1.533011e-03	1.585445e-04	1.227618e-04
5.75172       	1.538100e-03	1.583665e-04	1.228037e-04
5.75287       	1.518545e-03	1.581747e-04	1.226665e-04
5.75402       	1.444028e-03	1.580055e-04	1.225884e-04
5.75517       	1.576690e-03	1.580617e-04	1.225294e-04
5.75632       	1.517655e-03	1.581454e-04	1.224649e-04
5.75747       	1.440983e-03	1.581549e-04	1.224489e-04
5.75862       	1.484917e-03	1.582474e-04	1.223865e-04
5.75977       	1.532891e-03	1.582229e-04	1.223658e-04
5.76092       	1.335743e-03	1.581774e-04	1.223333e-04
5.76207       	1.424705e-03	1.581639e-04	1.222110e-04
5.76322       	1.552138e-03	1.580000e-04	1.221912e-04
5.76437       	1.600351e-03	1.578607e-04	1.220898e-04
5.76552       	1.537744e-03	1.578448e-04	1.220910e-04
5.76667       	1.617810e-03	1.578834e-04	1.220843e-04
5.76782       	1.454096e-03	1.577290e-04	1.221278e-04
5.76897       	1.438469e-03	1.576147e-04	1.221715e-04
5.77011       	1.699696e-03	1.578004e-04	1.223299e-04
5.77126       	1.524873e-03	1.577972e-04	1.226160e-04
5.77241       	1.606581e-03	1.578038e-04	1.228097e-04
5.77356       	1.582031e-03	1.576218e-04	1.227874e-04
5.77471       	1.592454e-03	1.575616e-04	1.228125e-04
5.77586       	1.758228e-03	1.574225e-04	1.227915e-04
5.77701       	1.742957e-03	1.578658e-04	1.229510e-04
5.77816       	1.581296e-03	1.578790e-04	1.230539e-04
5.77931       	1.829608e-03	1.573580e-04	1.229471e-04
5.78046       	1.669765e-03	1.570483e-04	1.227604e-04
5.78161       	1.558425e-03	1.566860e-04	1.227418e-04
5.78276       	1.513994e-03	1.567065e-04	1.226384e-04
5.78391       	1.517469e-03	1.564933e-04	1.226659e-04
5.78506       	1.612276e-03	1.564989e-04	1.228326e-04
5.78621       	1.545071e-03	1.563882e-04	1.229817e-04
5.78736       	1.531429e-03	1.561918e-04	1.231683e-04
5.78851       	1.532635e-03	1.560148e-04	1.231896e-04
5.78966       	1.539209e-03	1.557877e-04	1.230527e-04
5.7908        	1.483180e-03	1.556256e-04	1.230220e-04
5.79195       	1.520460e-03	1.553907e-04	1.230826e-04
5.7931        	1.568311e-03	1.551944e-04	1.231502e-04
5.79425       	1.567400e-03	1.550568e-04	1.230610e-04
5.7954        	1.446810e-03	1.549271e-04	1.228617e-04
5.79655       	1.479046e-03	1.546195e-04	1.227826e-04
5.7977        	1.504570e-03	1.544239e-04	1.227061e-04
5.79885       	1.545943e-03	1.543086e-04	1.225511e-04
5.8           	1.425067e-03	1.541868e-04	1.225139e-04
5.80115       	1.587214e-03	1.540148e-04	1.226335e-04
5.8023        	1.652299e-03	1.539596e-04	1.223624e-04
5.80345       	1.861894e-03	1.537389e-04	1.223193e-04
5.8046        	1.863243e-03	1.537548e-04	1.225515e-04
5.80575       	1.537981e-03	1.537643e-04	1.225542e-04
5.8069        	1.417573e-03	1.536327e-04	1.223990e-04
5.80805       	1.465063e-03	1.535271e-04	1.221877e-04
5.8092        	1.666405e-03	1.534418e-04	1.224904e-04
5.81034       	1.574499e-03	1.532943e-04	1.226574e-04
5.81149       	1.462227e-03	1.531959e-04	1.226354e-04
5.81264       	1.633794e-03	1.532687e-04	1.226945e-04
5.81379       	1.480094e-03	1.532220e-04	1.227271e-04
5.81494       	1.513155e-03	1.532193e-04	1.225605e-04
5.81609       	1.618563e-03	1.533710e-04	1.225352e-04
5.81724       	1.633654e-03	1.534954e-04	1.224368e-04
5.81839       	1.646739e-03	1.533227e-04	1.223315e-04
5.81954       	1.749002e-03	1.532819e-04	1.221098e-04
5.82069       	1.640931e-03	1.529904e-04	1.217962e-04
5.82184       	1.592041e-03	1.528894e-04	1.216632e-04
5.82299       	1.660352e-03	1.527952e-04	1.215001e-04
5.82414       	1.630367e-03	1.523906e-04	1.215327e-04
5.82527       	2.456593e-03	1.497334e-04	1.211501e-04
5.8264        	1.689330e-03	1.511131e-04	1.195875e-04
5.82753       	1.613793e-03	1.499105e-04	1.198850e-04
5.82867       	1.554885e-03	1.498232e-04	1.197228e-04
5.8298        	1.573199e-03	1.496403e-04	1.195843e-04
5.83093       	1.595133e-03	1.495046e-04	1.193595e-04
5.83206       	1.647343e-03	1.495487e-04	1.193536e-04
5.8332        	1.586035e-03	1.496549e-04	1.191757e-04
5.83433       	1.581438e-03	1.498039e-04	1.192505e-04
5.83546       	1.841136e-03	1.498411e-04	1.196434e-04
5.83659       	2.025296e-03	1.507495e-04	1.200875e-04
5.83773       	1.690173e-03	1.514316e-04	1.201281e-04
5.83886       	1.833630e-03	1.518679e-04	1.203148e-04
5.83999       	1.976870e-03	1.526516e-04	1.204952e-04
5.84112       	1.926072e-03	1.534731e-04	1.204658e-04
5.84225       	1.702036e-03	1.532414e-04	1.203621e-04
5.84339       	1.644669e-03	1.532493e-04	1.202957e-04
5.84452       	1.530865e-03	1.531164e-04	1.202458e-04
5.84565       	1.517381e-03	1.527909e-04	1.203681e-04
5.84678       	1.601034e-03	1.526060e-04	1.205076e-04
5.84792       	1.533631e-03	1.524893e-04	1.204653e-04
5.84905       	1.581115e-03	1.520586e-04	1.204324e-04
5.85018       	1.608515e-03	1.516205e-04	1.202520e-04
5.85131       	1.567622e-03	1.511708e-04	1.202047e-04
5.85244       	1.583040e-03	1.507976e-04	1.202121e-04
5.85358       	1.555619e-03	1.506439e-04	1.200999e-04
5.85471       	1.652274e-03	1.504083e-04	1.200092e-04
5.85584       	1.680363e-03	1.502960e-04	1.199530e-04
5.85697       	1.488782e-03	1.501798e-04	1.198179e-04
5.85811       	1.543948e-03	1.499113e-04	1.197639e-04
5.85924       	1.547532e-03	1.496986e-04	1.198530e-04
5.86037       	1.551364e-03	1.497550e-04	1.198975e-04
5.8615        	1.514772e-03	1.496739e-04	1.198147e-04
5.86264       	1.489405e-03	1.494934e-04	1.196804e-04
5.86377       	1.432684e-03	1.492294e-04	1.193447e-04
5.8649        	1.431040e-03	1.490623e-04	1.191282e-04
5.86603       	1.601718e-03	1.488442e-04	1.190578e-04
5.86716       	1.470879e-03	1.487432e-04	1.189139e-04
5.8683        	1.510516e-03	1.486472e-04	1.188796e-04
5.86943       	1.606179e-03	1.485585e-04	1.190594e-04
5.87056       	1.519760e-03	1.485783e-04	1.191169e-04
5.87169       	1.660079e-03	1.486208e-04	1.190959e-04
5.87283       	1.839639e-03	1.486563e-04	1.191088e-04
5.87396       	1.651707e-03	1.482994e-04	1.189863e-04
5.87509       	1.544818e-03	1.483003e-04	1.189857e-04
5.87622       	1.444980e-03	1.482069e-04	1.189723e-04
5.87735       	1.531862e-03	1.481744e-04	1.190093e-04
5.87849       	1.528607e-03	1.481100e-04	1.189998e-04
5.87962       	1.501510e-03	1.481633e-04	1.190218e-04
5.88075       	1.579841e-03	1.481198e-04	1.190726e-04
5.88188       	1.460573e-03	1.480674e-04	1.190026e-04
5.88302       	1.532958e-03	1.477539e-04	1.189078e-04
5.88415       	1.548654e-03	1.477374e-04	1.187694e-04
5.88528       	1.595469e-03	1.478725e-04	1.186051e-04
5.88641       	1.677051e-03	1.477389e-04	1.186305e-04
5.88755       	1.478755e-03	1.474789e-04	1.183971e-04
5.88868       	1.433098e-03	1.473746e-04	1.182063e-04
5.88981       	1.533464e-03	1.471147e-04	1.181566e-04
5.89094       	1.420159e-03	1.469785e-04	1.180235e-04
5.89207       	1.469492e-03	1.468963e-04	1.181188e-04
5.89321       	1.511747e-03	1.468260e-04	1.181673e-04
5.89434       	1.441878e-03	1.468188e-04	1.179855e-04
5.89547       	1.402587e-03	1.468436e-04	1.178503e-04
5.8966        	1.483893e-03	1.467119e-04	1.178352e-04
5.89774       	1.510182e-03	1.467940e-04	1.179532e-04
5.89887       	1.748284e-03	1.469988e-04	1.179619e-04
5.9           	1.523453e-03	1.468311e-04	1.180070e-04
5.90114       	1.860851e-03	1.472274e-04	1.181580e-04
5.90227       	1.707412e-03	1.468361e-04	1.184948e-04
5.90341       	1.557384e-03	1.467956e-04	1.183654e-04
5.90455       	1.623650e-03	1.468002e-04	1.181701e-04
5.90568       	1.532307e-03	1.469376e-04	1.180109e-04
5.90682       	1.499882e-03	1.467290e-04	1.180544e-04
5.90795       	1.498457e-03	1.463650e-04	1.179483e-04
5.90909       	1.898754e-03	1.469991e-04	1.184982e-04
5.91023       	2.398108e-03	1.486781e-04	1.192063e-04
5.91136       	2.010411e-03	1.502974e-04	1.190920e-04
5.9125        	1.771599e-03	1.499466e-04	1.188701e-04
5.91364       	1.765632e-03	1.494043e-04	1.186151e-04
5.91477       	1.793674e-03	1.491996e-04	1.185522e-04
5.91591       	1.748185e-03	1.493856e-04	1.185230e-04
5.91705       	1.496878e-03	1.494460e-04	1.183954e-04
5.91818       	1.455876e-03	1.490233e-04	1.182357e-04
5.91932       	1.605614e-03	1.488199e-04	1.181688e-04
5.92045       	1.520978e-03	1.485330e-04	1.181734e-04
5.92159       	1.575930e-03	1.483336e-04	1.181649e-04
5.92273       	1.556326e-03	1.483902e-04	1.180704e-04
5.92386       	1.588827e-03	1.480149e-04	1.180177e-04
5.925         	1.547966e-03	1.477095e-04	1.182076e-04
5.92614       	1.540567e-03	1.474103e-04	1.182353e-04
5.92727       	1.669807e-03	1.471734e-04	1.182133e-04
5.92841       	1.605327e-03	1.469238e-04	1.181448e-04
5.92955       	1.471779e-03	1.467812e-04	1.180166e-04
5.93068       	1.614545e-03	1.464033e-04	1.179452e-04
5.93182       	1.565684e-03	1.461990e-04	1.179525e-04
5.93295       	1.586736e-03	1.461007e-04	1.179727e-04
5.93409       	1.643051e-03	1.459561e-04	1.179577e-04
5.93523       	1.784664e-03	1.456339e-04	1.179136e-04
5.93636       	1.537710e-03	1.454422e-04	1.179818e-04
5.9375        	1.480639e-03	1.454142e-04	1.179129e-04
5.93864       	1.513161e-03	1.452769e-04	1.179673e-04
5.93977       	1.607944e-03	1.451670e-04	1.178965e-04
5.94091       	1.484416e-03	1.449493e-04	1.178869e-04
5.94205       	1.470931e-03	1.448644e-04	1.179097e-04
5.94318       	1.522653e-03	1.446846e-04	1.180065e-04
5.94432       	1.576461e-03	1.447627e-04	1.181537e-04
5.94545       	1.549855e-03	1.445351e-04	1.181967e-04
5.94659       	1.501625e-03	1.443789e-04	1.182170e-04
5.94773       	1.535663e-03	1.441733e-04	1.181434e-04
5.94886       	1.570527e-03	1.438872e-04	1.181640e-04
5.95          	1.556230e-03	1.436923e-04	1.183238e-04
5.95114       	1.596238e-03	1.433817e-04	1.185608e-04
5.95227       	1.695698e-03	1.432647e-04	1.185748e-04
5.95341       	1.631955e-03	1.431159e-04	1.187775e-04
5.95455       	1.538450e-03	1.430036e-04	1.188038e-04
5.95568       	1.552085e-03	1.430185e-04	1.188746e-04
5.95682       	1.552556e-03	1.430259e-04	1.188614e-04
5.95795       	1.534525e-03	1.430529e-04	1.189385e-04
5.95909       	1.627010e-03	1.430954e-04	1.188989e-04
5.96023       	1.502538e-03	1.431401e-04	1.188797e-04
5.96136       	1.628005e-03	1.432033e-04	1.186945e-04
5.9625        	1.507398e-03	1.432964e-04	1.186362e-04
5.96364       	1.452798e-03	1.432615e-04	1.186389e-04
5.96477       	1.451659e-03	1.432448e-04	1.186475e-04
5.96591       	1.497593e-03	1.432849e-04	1.185903e-04
5.96705       	1.434231e-03	1.433173e-04	1.184051e-04
5.96818       	1.453223e-03	1.432297e-04	1.183680e-04
5.96932       	1.580228e-03	1.431895e-04	1.182619e-04
5.97045       	1.517519e-03	1.432746e-04	1.181417e-04
5.97159       	1.553569e-03	1.433440e-04	1.179709e-04
5.97273       	1.548176e-03	1.432661e-04	1.177637e-04
5.97386       	1.504489e-03	1.431309e-04	1.176452e-04
5.975         	1.514794e-03	1.429411e-04	1.174101e-04
5.97614       	1.507663e-03	1.427272e-04	1.174264e-04
5.97727       	1.508325e-03	1.426228e-04	1.172147e-04
5.97841       	1.563067e-03	1.425478e-04	1.171246e-04
5.97955       	1.541529e-03	1.423060e-04	1.170288e-04
5.98068       	1.522001e-03	1.421949e-04	1.170034e-04
5.98182       	1.517167e-03	1.420744e-04	1.170245e-04
5.98295       	1.557472e-03	1.422424e-04	1.169516e-04
5.98409       	1.681391e-03	1.422387e-04	1.169539e-04
5.98523       	1.657571e-03	1.422516e-04	1.168154e-04
5.98636       	2.020668e-03	1.422700e-04	1.171100e-04
5.9875        	2.333333e-03	1.434777e-04	1.179554e-04
5.98864       	2.318285e-03	1.453909e-04	1.192570e-04
5.98977       	1.691233e-03	1.470048e-04	1.198342e-04
5.99091       	1.593281e-03	1.467359e-04	1.196220e-04
5.99205       	1.531838e-03	1.459740e-04	1.191647e-04
5.99318       	1.774217e-03	1.454177e-04	1.190776e-04
5.99432       	1.730204e-03	1.450693e-04	1.186480e-04
5.99545       	1.716396e-03	1.442264e-04	1.183564e-04
5.99659       	1.602610e-03	1.436814e-04	1.182231e-04
5.99773       	1.584066e-03	1.434006e-04	1.181820e-04
5.99886       	1.610225e-03	1.430035e-04	1.179147e-04
6             	1.540140e-03	1.426259e-04	1.178342e-04
6.00114       	1.522636e-03	1.423096e-04	1.179038e-04
6.00227       	1.553793e-03	1.421925e-04	1.177394e-04
6.00341       	1.619587e-03	1.418212e-04	1.176658e-04
6.00455       	1.550028e-03	1.417374e-04	1.177890e-04
6.00568       	1.778389e-03	1.415972e-04	1.176441e-04
6.00682       	1.584146e-03	1.411103e-04	1.175761e-04
6.00795       	1.534444e-03	1.410358e-04	1.176813e-04
6.00909       	1.526786e-03	1.409471e-04	1.177035e-04
6.01023       	1.551017e-03	1.408048e-04	1.175966e-04
6.01136       	1.575328e-03	1.407081e-04	1.176138e-04
6.0125        	1.617340e-03	1.406091e-04	1.175978e-04
6.01364       	1.537672e-03	1.402930e-04	1.174592e-04
6.01477       	1.674157e-03	1.400815e-04	1.174782e-04
6.01591       	1.492972e-03	1.399585e-04	1.174511e-04
6.01705       	1.434691e-03	1.398958e-04	1.173745e-04
6.01818       	1.373429e-03	1.397694e-04	1.173114e-04
6.01932       	1.509401e-03	1.395869e-04	1.172801e-04
6.02045       	1.437208e-03	1.394416e-04	1.172596e-04
6.02159       	1.459147e-03	1.393048e-04	1.170729e-04
6.02273       	1.544217e-03	1.393099e-04	1.170104e-04
6.02386       	1.567550e-03	1.390827e-04	1.171020e-04
6.025         	1.547741e-03	1.390468e-04	1.169604e-04
6.02614       	1.373588e-03	1.389245e-04	1.167455e-04
6.02727       	1.480095e-03	1.388725e-04	1.166684e-04
6.02841       	1.429902e-03	1.386684e-04	1.165245e-04
6.02955       	1.490815e-03	1.384828e-04	1.165434e-04
6.03068       	1.465982e-03	1.382925e-04	1.163687e-04
6.03182       	1.512135e-03	1.382165e-04	1.162962e-04
6.03295       	1.555342e-03	1.381761e-04	1.163010e-04
6.03409       	1.480871e-03	1.380237e-04	1.162357e-04
6.03523       	1.480114e-03	1.379581e-04	1.161608e-04
6.03636       	1.565062e-03	1.379677e-04	1.161636e-04
6.0375        	1.589041e-03	1.380045e-04	1.163875e-04
6.03864       	1.468382e-03	1.379337e-04	1.163178e-04
6.03977       	1.463228e-03	1.377173e-04	1.162512e-04
6.04091       	1.456181e-03	1.376459e-04	1.161622e-04
6.04205       	1.471558e-03	1.375979e-04	1.160990e-04
6.04318       	1.538395e-03	1.377135e-04	1.159002e-04
6.04432       	1.482659e-03	1.376123e-04	1.158911e-04
6.04545       	1.513844e-03	1.376134e-04	1.157309e-04
6.04659       	1.589599e-03	1.373905e-04	1.155407e-04
6.04773       	1.567185e-03	1.373448e-04	1.153838e-04
6.04886       	1.587557e-03	1.372636e-04	1.154027e-04
6.05          	1.635608e-03	1.373407e-04	1.154127e-04
6.05114       	1.710151e-03	1.371567e-04	1.154932e-04
6.05227       	1.557188e-03	1.371902e-04	1.155387e-04
6.05341       	1.488546e-03	1.371108e-04	1.156051e-04
6.05455       	1.515707e-03	1.370922e-04	1.156368e-04
6.05568       	1.655399e-03	1.371816e-04	1.155713e-04
6.05682       	1.530261e-03	1.371711e-04	1.156880e-04
6.05795       	1.597059e-03	1.373199e-04	1.158548e-04
6.05909       	1.717700e-03	1.372245e-04	1.162967e-04
6.06023       	1.603311e-03	1.371912e-04	1.164213e-04
6.06136       	1.554738e-03	1.371131e-04	1.163908e-04
6.0625        	1.579587e-03	1.371514e-04	1.158512e-04
6.06364       	1.536754e-03	1.370895e-04	1.157664e-04
6.06477       	1.595898e-03	1.370317e-04	1.157741e-04
6.06591       	1.559055e-03	1.369315e-04	1.157367e-04
6.06705       	1.603804e-03	1.368179e-04	1.157871e-04
6.06818       	1.542595e-03	1.366781e-04	1.156595e-04
6.06932       	1.668333e-03	1.365970e-04	1.156139e-04
6.07045       	1.869582e-03	1.364315e-04	1.157546e-04
6.07159       	1.478610e-03	1.361872e-04	1.158264e-04
6.07273       	1.978816e-03	1.360964e-04	1.160731e-04
6.07386       	2.285271e-03	1.373682e-04	1.162806e-04
6.075         	1.981513e-03	1.389446e-04	1.163873e-04
6.07614       	1.696341e-03	1.398206e-04	1.164277e-04
6.07727       	1.720129e-03	1.396955e-04	1.160997e-04
6.07841       	1.640747e-03	1.391128e-04	1.161522e-04
6.07955       	1.648216e-03	1.385214e-04	1.160024e-04
6.08068       	1.599254e-03	1.381108e-04	1.160568e-04
6.08182       	1.606932e-03	1.376640e-04	1.159643e-04
6.08295       	1.594656e-03	1.373830e-04	1.160038e-04
6.08409       	1.842549e-03	1.374324e-04	1.160588e-04
6.08523       	1.655437e-03	1.372431e-04	1.159878e-04
6.08636       	1.517151e-03	1.368497e-04	1.158004e-04
6.0875        	1.562149e-03	1.362495e-04	1.157280e-04
6.08864       	1.592201e-03	1.359364e-04	1.156146e-04
6.08977       	1.686135e-03	1.358498e-04	1.157737e-04
6.09091       	1.574540e-03	1.356503e-04	1.155212e-04
6.09205       	1.647958e-03	1.354347e-04	1.154810e-04
6.09318       	1.550479e-03	1.350973e-04	1.154610e-04
6.09432       	1.565948e-03	1.349461e-04	1.152949e-04
6.09545       	1.644779e-03	1.348148e-04	1.152816e-04
6.09659       	1.774210e-03	1.348757e-04	1.154129e-04
6.09773       	1.821481e-03	1.348746e-04	1.154668e-04
6.09886       	1.804040e-03	1.348968e-04	1.155537e-04
6.1           	1.928540e-03	1.346463e-04	1.156232e-04
6.10114       	1.778567e-03	1.346606e-04	1.155912e-04
6.10227       	1.972540e-03	1.348119e-04	1.157618e-04
6.10341       	1.693346e-03	1.345396e-04	1.157970e-04
6.10455       	1.600769e-03	1.343475e-04	1.159036e-04
6.10568       	1.702021e-03	1.342603e-04	1.157476e-04
6.10682       	1.595640e-03	1.340518e-04	1.156697e-04
6.10795       	1.670529e-03	1.339726e-04	1.155026e-04
6.10909       	1.737093e-03	1.337951e-04	1.154656e-04
6.11023       	1.644186e-03	1.339745e-04	1.151040e-04
6.11136       	1.708157e-03	1.340761e-04	1.149682e-04
6.1125        	1.644872e-03	1.339852e-04	1.149966e-04
6.11364       	1.647801e-03	1.340616e-04	1.149253e-04
6.11477       	1.676884e-03	1.341169e-04	1.147472e-04
6.11591       	1.497413e-03	1.340952e-04	1.145529e-04
6.11705       	1.620183e-03	1.339517e-04	1.144943e-04
6.11818       	1.550464e-03	1.340903e-04	1.144712e-04
6.11932       	1.522400e-03	1.340450e-04	1.142862e-04
6.12045       	1.524415e-03	1.339808e-04	1.143155e-04
6.12159       	1.583966e-03	1.338555e-04	1.142419e-04
6.12273       	1.654472e-03	1.337547e-04	1.141771e-04
6.12386       	1.524785e-03	1.337965e-04	1.140385e-04
6.125         	1.511444e-03	1.338696e-04	1.138975e-04
6.12614       	1.471581e-03	1.339083e-04	1.138575e-04
6.12727       	1.626768e-03	1.339402e-04	1.137692e-04
6.12841       	1.539971e-03	1.340810e-04	1.136085e-04
6.12955       	1.594281e-03	1.340259e-04	1.135531e-04
6.13068       	1.658611e-03	1.340709e-04	1.136199e-04
6.13182       	1.806212e-03	1.342303e-04	1.135920e-04
6.13295       	1.656243e-03	1.340824e-04	1.137780e-04
6.13409       	1.627420e-03	1.339424e-04	1.137364e-04
6.13523       	1.682378e-03	1.338800e-04	1.138277e-04
6.13636       	1.627958e-03	1.338998e-04	1.138450e-04
6.1375        	1.521893e-03	1.339006e-04	1.137868e-04
6.13864       	1.618106e-03	1.337733e-04	1.138406e-04
6.13977       	1.661291e-03	1.335227e-04	1.137566e-04
6.14091       	1.663216e-03	1.336903e-04	1.137569e-04
6.14205       	1.500614e-03	1.335179e-04	1.138535e-04
6.14318       	1.593801e-03	1.334688e-04	1.139925e-04
6.14432       	1.636582e-03	1.334187e-04	1.139982e-04
6.14545       	1.762807e-03	1.335301e-04	1.139066e-04
6.14659       	1.662370e-03	1.335510e-04	1.140595e-04
6.14773       	1.584924e-03	1.336260e-04	1.142824e-04
6.14886       	1.550867e-03	1.337569e-04	1.144181e-04
6.15          	1.602418e-03	1.338196e-04	1.143091e-04
6.15114       	1.678436e-03	1.338322e-04	1.143106e-04
6.15227       	1.684621e-03	1.339642e-04	1.142691e-04
6.15341       	1.596802e-03	1.338825e-04	1.141356e-04
6.15455       	1.649560e-03	1.337109e-04	1.141027e-04
6.15568       	1.745878e-03	1.335599e-04	1.140606e-04
6.15682       	1.690595e-03	1.336981e-04	1.139667e-04
6.15795       	1.603132e-03	1.338824e-04	1.137863e-04
6.15909       	1.576284e-03	1.340151e-04	1.136471e-04
6.16023       	1.577667e-03	1.340999e-04	1.137275e-04
6.16136       	1.670839e-03	1.340753e-04	1.139509e-04
6.1625        	1.598129e-03	1.341480e-04	1.140249e-04
6.16364       	1.583646e-03	1.341312e-04	1.139540e-04
6.16477       	1.619608e-03	1.342243e-04	1.138115e-04
6.16591       	1.658600e-03	1.341781e-04	1.138410e-04
6.16705       	1.567564e-03	1.340501e-04	1.137176e-04
6.16818       	1.587108e-03	1.340370e-04	1.134782e-04
6.16932       	1.658589e-03	1.339405e-04	1.135485e-04
6.17045       	1.627727e-03	1.341303e-04	1.137226e-04
6.17159       	1.596494e-03	1.340568e-04	1.137987e-04
6.17273       	1.536558e-03	1.340698e-04	1.137511e-04
6.17386       	1.658001e-03	1.338156e-04	1.137371e-04
6.175         	1.679285e-03	1.338057e-04	1.137531e-04
6.17614       	1.726378e-03	1.340324e-04	1.136015e-04
6.17727       	1.627355e-03	1.341210e-04	1.136086e-04
6.17841       	1.649011e-03	1.340503e-04	1.134874e-04
6.17955       	1.636148e-03	1.338830e-04	1.137208e-04
6.18068       	1.659388e-03	1.338718e-04	1.138286e-04
6.18182       	1.619196e-03	1.338863e-04	1.138545e-04
6.18295       	1.640604e-03	1.339180e-04	1.139000e-04
6.18409       	1.649817e-03	1.338721e-04	1.141921e-04
6.18523       	1.705878e-03	1.339597e-04	1.143371e-04
6.18636       	1.637101e-03	1.341504e-04	1.143025e-04
6.1875        	1.627002e-03	1.341379e-04	1.144332e-04
6.18864       	1.662608e-03	1.342508e-04	1.143846e-04
6.18977       	1.638521e-03	1.344616e-04	1.143484e-04
6.19091       	1.654963e-03	1.345490e-04	1.143101e-04
6.19205       	1.696784e-03	1.344804e-04	1.141212e-04
6.19318       	1.698341e-03	1.342142e-04	1.142678e-04
6.19432       	1.634794e-03	1.341203e-04	1.142106e-04
6.19545       	1.795275e-03	1.340200e-04	1.142930e-04
6.19659       	1.587114e-03	1.339444e-04	1.141591e-04
6.19773       	1.529237e-03	1.338352e-04	1.144957e-04
6.19886       	1.527771e-03	1.338192e-04	1.144965e-04
6.2           	1.498909e-03	1.338069e-04	1.143804e-04
6.20114       	1.543532e-03	1.338708e-04	1.140679e-04
6.20227       	1.600356e-03	1.337332e-04	1.138633e-04
6.20341       	1.629026e-03	1.339754e-04	1.138523e-04
6.20455       	1.584701e-03	1.338370e-04	1.139535e-04
6.20568       	1.715821e-03	1.337671e-04	1.139331e-04
6.20682       	1.558491e-03	1.337025e-04	1.138070e-04
6.20795       	1.620673e-03	1.339611e-04	1.137377e-04
6.20909       	1.522399e-03	1.340656e-04	1.136746e-04
6.21023       	1.622899e-03	1.339427e-04	1.134867e-04
6.21136       	1.571988e-03	1.339585e-04	1.134963e-04
6.2125        	1.608538e-03	1.341211e-04	1.134898e-04
6.21364       	1.537720e-03	1.342020e-04	1.136424e-04
6.21477       	1.578748e-03	1.338905e-04	1.135756e-04
6.21591       	1.550089e-03	1.337764e-04	1.132375e-04
6.21705       	1.652485e-03	1.334820e-04	1.132984e-04
6.21818       	1.798977e-03	1.334709e-04	1.131333e-04
6.21932       	1.760027e-03	1.336200e-04	1.130189e-04
6.22045       	1.888106e-03	1.337840e-04	1.132474e-04
6.22159       	1.943205e-03	1.339186e-04	1.135172e-04
6.22273       	1.858857e-03	1.337502e-04	1.137933e-04
6.22386       	1.817487e-03	1.336982e-04	1.139945e-04
6.225         	1.862377e-03	1.340228e-04	1.143043e-04
6.22614       	1.703772e-03	1.342566e-04	1.139373e-04
6.22727       	1.702562e-03	1.339501e-04	1.136972e-04
6.22841       	1.712829e-03	1.337548e-04	1.135398e-04
6.22955       	1.726748e-03	1.336277e-04	1.135820e-04
6.23068       	1.820967e-03	1.337764e-04	1.139372e-04
6.23182       	1.685094e-03	1.341121e-04	1.135659e-04
6.23295       	1.631298e-03	1.337495e-04	1.135092e-04
6.23409       	1.573519e-03	1.336586e-04	1.134868e-04
6.23523       	1.698156e-03	1.339210e-04	1.134661e-04
6.23636       	1.868469e-03	1.341215e-04	1.134836e-04
6.2375        	1.858490e-03	1.338766e-04	1.136221e-04
6.23864       	1.955934e-03	1.340295e-04	1.134961e-04
6.23977       	1.847053e-03	1.338743e-04	1.138873e-04
6.24091       	1.683911e-03	1.342906e-04	1.139563e-04
6.24205       	1.644704e-03	1.342545e-04	1.139222e-04
6.24318       	1.825458e-03	1.341586e-04	1.139357e-04
6.24432       	1.683466e-03	1.340415e-04	1.139218e-04
6.24545       	1.850586e-03	1.340749e-04	1.140392e-04
6.24659       	1.822439e-03	1.345355e-04	1.138895e-04
6.24773       	1.711851e-03	1.342614e-04	1.137318e-04
6.24886       	1.750787e-03	1.340499e-04	1.138857e-04
6.25          	1.796814e-03	1.342163e-04	1.140745e-04
6.25114       	1.783309e-03	1.345783e-04	1.138694e-04
6.25227       	1.710343e-03	1.346087e-04	1.140065e-04
6.25341       	1.591100e-03	1.345497e-04	1.141470e-04
6.25455       	1.630291e-03	1.345391e-04	1.145404e-04
6.25568       	1.598483e-03	1.347453e-04	1.144562e-04
6.25682       	1.656314e-03	1.346386e-04	1.144329e-04
6.25795       	1.566792e-03	1.346399e-04	1.143521e-04
6.25909       	1.562090e-03	1.344755e-04	1.144185e-04
6.26023       	1.680010e-03	1.345110e-04	1.141548e-04
6.26136       	1.675819e-03	1.344558e-04	1.141108e-04
6.2625        	1.631030e-03	1.346434e-04	1.140738e-04
6.26364       	1.745124e-03	1.346245e-04	1.143617e-04
6.26477       	1.726197e-03	1.348895e-04	1.141316e-04
6.26591       	2.224004e-03	1.346001e-04	1.150151e-04
6.26705       	1.850691e-03	1.349117e-04	1.150072e-04
6.26818       	1.764265e-03	1.353027e-04	1.148651e-04
6.26932       	1.667778e-03	1.353579e-04	1.145646e-04
6.27045       	1.610992e-03	1.352549e-04	1.142647e-04
6.27159       	1.969238e-03	1.352091e-04	1.143892e-04
6.27273       	1.931340e-03	1.355165e-04	1.149086e-04
6.27386       	1.649344e-03	1.356484e-04	1.148732e-04
6.275         	1.680569e-03	1.356237e-04	1.146836e-04
6.27614       	1.910937e-03	1.355430e-04	1.145794e-04
6.27727       	1.853989e-03	1.354203e-04	1.148376e-04
6.27841       	1.750509e-03	1.355350e-04	1.147797e-04
6.27955       	1.714585e-03	1.354201e-04	1.146308e-04
6.28068       	1.624972e-03	1.353108e-04	1.144994e-04
6.28182       	1.571573e-03	1.350506e-04	1.143901e-04
6.28295       	1.719677e-03	1.350591e-04	1.142879e-04
6.28409       	1.764891e-03	1.351845e-04	1.140453e-04
6.28523       	1.714668e-03	1.351321e-04	1.140234e-04
6.28636       	1.596984e-03	1.349751e-04	1.140037e-04
6.2875        	1.490176e-03	1.350080e-04	1.138222e-04
6.28864       	1.530304e-03	1.346586e-04	1.134801e-04
6.28977       	1.606636e-03	1.344332e-04	1.134119e-04
6.29091       	1.628171e-03	1.344766e-04	1.132126e-04
6.29205       	1.780636e-03	1.345908e-04	1.134109e-04
6.29318       	1.660019e-03	1.345116e-04	1.132699e-04
6.29432       	1.722303e-03	1.344588e-04	1.131237e-04
6.29545       	1.716892e-03	1.345311e-04	1.129410e-04
6.29659       	1.627945e-03	1.344518e-04	1.127643e-04
6.29773       	1.705370e-03	1.344700e-04	1.126363e-04
6.29886       	1.591281e-03	1.343361e-04	1.125755e-04
6.3           	1.773269e-03	1.341517e-04	1.125920e-04
6.30114       	1.733002e-03	1.341362e-04	1.126133e-04
6.30227       	1.761855e-03	1.341582e-04	1.125151e-04
6.30341       	1.650478e-03	1.343373e-04	1.123616e-04
6.30455       	1.657668e-03	1.341830e-04	1.122828e-04
6.30568       	1.622330e-03	1.342194e-04	1.120753e-04
6.30682       	1.736159e-03	1.345022e-04	1.120790e-04
6.30795       	1.647100e-03	1.346679e-04	1.118906e-04
6.30909       	1.715370e-03	1.349590e-04	1.118003e-04
6.31023       	1.846739e-03	1.352748e-04	1.119003e-04
6.31136       	1.692353e-03	1.356042e-04	1.120203e-04
6.3125        	1.849126e-03	1.354515e-04	1.117701e-04
6.31364       	1.750082e-03	1.349877e-04	1.116311e-04
6.31477       	1.704399e-03	1.349115e-04	1.116548e-04
6.31591       	1.757826e-03	1.351691e-04	1.116924e-04
6.31705       	1.864127e-03	1.355160e-04	1.119170e-04
6.31818       	1.702611e-03	1.357961e-04	1.118257e-04
6.31932       	1.635023e-03	1.360570e-04	1.116767e-04
6.32045       	1.515010e-03	1.358597e-04	1.116395e-04
6.32159       	1.612018e-03	1.360258e-04	1.116448e-04
6.32273       	1.621368e-03	1.364196e-04	1.116539e-04
6.32386       	1.719603e-03	1.367427e-04	1.117191e-04
6.325         	1.595632e-03	1.365934e-04	1.117229e-04
6.32614       	1.631092e-03	1.364511e-04	1.120144e-04
6.32727       	1.682802e-03	1.369374e-04	1.121907e-04
6.32841       	1.733012e-03	1.370192e-04	1.123501e-04
6.32955       	1.613786e-03	1.371312e-04	1.123376e-04