# Residuals   
# Time        	p             	Ux            	Uy            
18.7          	N/A	N/A
18.7091       	1.141923e-01	9.711380e-04	1.650041e-03
18.7182       	1.028520e-01	1.864231e-03	1.700323e-03
18.7273       	1.094658e-02	6.188108e-04	6.051782e-04
18.7364       	6.494877e-03	6.184238e-04	6.297072e-04
18.7455       	5.047167e-03	6.211167e-04	5.754528e-04
18.7545       	4.103556e-03	6.117466e-04	5.792521e-04
18.7636       	3.943080e-03	6.120403e-04	5.685528e-04
18.7727       	3.696283e-03	6.009404e-04	5.607541e-04
18.7818       	3.963589e-03	6.094679e-04	5.545408e-04
18.7909       	4.124317e-03	6.017046e-04	5.496683e-04
18.8          	3.816409e-03	6.051978e-04	5.543586e-04
18.8091       	3.570458e-03	5.998168e-04	5.568880e-04
18.8182       	3.740584e-03	6.039574e-04	5.489255e-04
18.8273       	4.252622e-03	5.975653e-04	5.765857e-04
18.8364       	3.878705e-03	5.992888e-04	5.522771e-04
18.8455       	3.269614e-03	5.909633e-04	5.665621e-04
18.8545       	3.155981e-03	5.880753e-04	5.150567e-04
18.8636       	2.986293e-03	5.883379e-04	5.192726e-04
18.8727       	2.989394e-03	5.817662e-04	5.167974e-04
18.8818       	2.963941e-03	5.762494e-04	5.164764e-04
18.8909       	2.936946e-03	5.744443e-04	5.079083e-04
18.9          	3.201849e-03	5.705896e-04	5.122641e-04
18.91         	2.169068e-02	6.164452e-04	6.204693e-04
18.92         	1.217037e-02	6.728647e-04	6.895541e-04
18.93         	6.706347e-03	6.038936e-04	7.759410e-04
18.94         	5.302162e-03	6.074156e-04	6.940678e-04
18.95         	4.047871e-03	5.975758e-04	6.313123e-04
18.96         	4.498639e-03	5.932235e-04	5.790816e-04
18.97         	3.925940e-03	5.858118e-04	5.709462e-04
18.98         	3.610361e-03	5.847985e-04	5.617141e-04
18.99         	2.996159e-03	5.828555e-04	5.609444e-04
19            	3.075521e-03	5.820154e-04	5.564475e-04
19.01         	3.486515e-03	5.793533e-04	5.533185e-04
19.02         	3.513508e-03	5.768704e-04	5.514278e-04
19.03         	3.077051e-03	5.760617e-04	5.494592e-04
19.04         	3.210477e-03	5.753184e-04	5.476999e-04
19.05         	3.274305e-03	5.710161e-04	5.459769e-04
19.0583       	4.189102e-02	5.348505e-04	6.385916e-04
19.0667       	2.107223e-02	5.869356e-04	6.729142e-04
19.075        	1.081087e-02	5.244503e-04	7.688691e-04
19.0833       	7.055384e-03	5.415390e-04	6.473226e-04
19.0917       	5.701848e-03	5.445859e-04	7.160752e-04
19.1          	5.510153e-03	5.461257e-04	5.466321e-04
19.1091       	2.204641e-02	5.719666e-04	7.022867e-04
19.1182       	1.179273e-02	6.279194e-04	6.381828e-04
19.1273       	6.214126e-03	5.645127e-04	6.443368e-04
19.1364       	4.104151e-03	5.608948e-04	6.503140e-04
19.1455       	4.541883e-03	5.572658e-04	5.514392e-04
19.1545       	3.083947e-03	5.458133e-04	5.377058e-04
19.1636       	3.297838e-03	5.423382e-04	5.286362e-04
19.1727       	3.062154e-03	5.375875e-04	5.147546e-04
19.1818       	3.203610e-03	5.379770e-04	5.125776e-04
19.1909       	3.154613e-03	5.345245e-04	5.088407e-04
19.2          	2.869229e-03	5.327507e-04	5.076104e-04
19.2091       	2.873556e-03	5.304192e-04	5.059977e-04
19.2182       	3.231322e-03	5.304909e-04	5.044901e-04
19.2273       	3.073061e-03	5.273037e-04	5.016546e-04
19.2364       	3.211557e-03	5.280852e-04	4.977419e-04
19.2455       	3.648767e-03	5.265662e-04	5.025888e-04
19.2545       	3.356393e-03	5.268206e-04	5.109416e-04
19.2636       	2.862646e-03	5.279495e-04	5.133764e-04
19.2727       	2.768514e-03	5.269546e-04	5.113261e-04
19.2818       	3.361826e-03	5.295209e-04	5.102980e-04
19.2909       	2.956691e-03	5.304738e-04	5.095623e-04
19.3          	2.830275e-03	5.338160e-04	5.061083e-04
19.3091       	3.073664e-03	5.330640e-04	5.036962e-04
19.3182       	3.079268e-03	5.351532e-04	5.016215e-04
19.3273       	2.675058e-03	5.343791e-04	4.976367e-04
19.3364       	2.883682e-03	5.321762e-04	4.981665e-04
19.3455       	3.027948e-03	5.338089e-04	4.996136e-04
19.3545       	2.684741e-03	5.340352e-04	5.031922e-04
19.3636       	2.955545e-03	5.334389e-04	5.018082e-04
19.3727       	3.146018e-03	5.327204e-04	5.025319e-04
19.3818       	2.995619e-03	5.293376e-04	5.048545e-04
19.3909       	3.325350e-03	5.425842e-04	5.068628e-04
19.4          	3.177484e-03	5.405098e-04	5.099291e-04
19.4091       	3.009067e-03	5.441368e-04	5.119676e-04
19.4182       	2.560342e-03	5.404454e-04	5.099768e-04
19.4273       	2.916563e-03	5.378809e-04	5.082981e-04
19.4364       	2.713999e-03	5.364425e-04	5.031011e-04
19.4455       	2.668968e-03	5.335355e-04	4.977383e-04
19.4545       	2.696292e-03	5.280255e-04	4.920528e-04
19.4636       	2.832341e-03	5.245520e-04	4.924303e-04
19.4727       	3.323794e-03	5.231961e-04	4.950118e-04
19.4818       	3.209013e-03	5.181298e-04	5.019035e-04
19.4909       	2.736155e-03	5.185456e-04	5.056266e-04
19.5          	3.117058e-03	5.214841e-04	5.051363e-04
19.5091       	2.855692e-03	5.190920e-04	5.087325e-04
19.5182       	3.091784e-03	5.186626e-04	5.061489e-04
19.5273       	2.849265e-03	5.178399e-04	5.074740e-04
19.5364       	2.884950e-03	5.220098e-04	5.066289e-04
19.5455       	3.110138e-03	5.195982e-04	5.082391e-04
19.5545       	2.970926e-03	5.198879e-04	5.097442e-04
19.5636       	3.060752e-03	5.199842e-04	5.108673e-04
19.5727       	3.575592e-03	5.224533e-04	5.167035e-04
19.5818       	3.652686e-03	5.225800e-04	5.189941e-04
19.5909       	3.545570e-03	5.268726e-04	5.316575e-04
19.6          	4.392385e-03	5.191985e-04	5.399011e-04
19.6091       	3.288814e-03	5.148584e-04	5.349483e-04
19.6182       	3.383690e-03	5.133037e-04	5.185134e-04
19.6273       	3.076212e-03	5.200067e-04	5.150307e-04
19.6364       	3.155730e-03	5.200975e-04	5.236413e-04
19.6455       	2.606524e-03	5.223994e-04	5.163738e-04
19.6545       	2.886036e-03	5.192559e-04	5.188189e-04
19.6636       	2.996366e-03	5.259281e-04	5.153993e-04
19.6727       	3.021238e-03	5.221786e-04	5.178700e-04
19.6818       	3.163573e-03	5.290363e-04	5.234322e-04
19.6909       	3.645040e-03	5.287044e-04	5.485986e-04
19.7          	3.808209e-03	5.278443e-04	5.393387e-04
19.7091       	3.339375e-03	5.267792e-04	5.120405e-04
19.7182       	3.124992e-03	5.272984e-04	5.191471e-04
19.7273       	3.031057e-03	5.281835e-04	5.208585e-04
19.7364       	2.841242e-03	5.286446e-04	5.122854e-04
19.7455       	2.963403e-03	5.324417e-04	5.150307e-04
19.7545       	4.253493e-03	5.309578e-04	5.375280e-04
19.7636       	4.154381e-03	5.308061e-04	5.254212e-04
19.7727       	3.318869e-03	5.316249e-04	4.970084e-04
19.7818       	3.073738e-03	5.291044e-04	5.082068e-04
19.7909       	2.810813e-03	5.317437e-04	5.145214e-04
19.8          	3.482265e-03	5.314108e-04	5.132652e-04
19.8091       	3.196951e-03	5.332175e-04	4.982187e-04
19.8182       	4.239024e-03	5.282555e-04	5.440361e-04
19.8273       	4.981207e-03	5.350987e-04	5.396291e-04
19.8364       	4.559078e-03	5.347916e-04	5.126175e-04
19.8455       	3.789533e-03	5.366716e-04	5.244584e-04
19.8545       	3.824490e-03	5.452920e-04	5.205102e-04
19.8636       	3.824777e-03	5.439146e-04	5.275358e-04
19.8727       	5.120573e-03	5.463268e-04	5.477464e-04
19.8818       	4.097818e-03	5.458464e-04	5.522495e-04
19.8909       	3.690317e-03	5.453214e-04	5.270066e-04
19.9          	2.887207e-03	5.403925e-04	5.201388e-04
19.9091       	3.237643e-03	5.435335e-04	5.382616e-04
19.9182       	2.922833e-03	5.412298e-04	5.268343e-04
19.9273       	4.938305e-03	5.427694e-04	5.648419e-04
19.9364       	5.197563e-03	5.414270e-04	5.531285e-04
19.9455       	3.823342e-03	5.446416e-04	5.213952e-04
19.9545       	3.520169e-03	5.423152e-04	5.243639e-04
19.9636       	2.522051e-03	5.451895e-04	5.180610e-04
19.9727       	2.880998e-03	5.453771e-04	5.196698e-04
19.9818       	3.806771e-03	5.471281e-04	5.299561e-04
19.9909       	2.991686e-03	5.483982e-04	5.124000e-04
20            	3.269876e-03	5.499472e-04	5.198790e-04
20.0091       	2.925386e-03	5.477714e-04	4.981135e-04
20.0182       	2.852252e-03	5.524076e-04	4.998951e-04
20.0273       	3.269660e-03	5.531289e-04	5.102152e-04
20.0364       	2.787622e-03	5.581047e-04	5.103726e-04
20.0455       	2.747570e-03	5.595530e-04	5.108764e-04
20.0545       	2.766904e-03	5.616718e-04	5.055770e-04
20.0636       	3.535988e-03	5.578043e-04	5.208431e-04
20.0727       	3.042476e-03	5.599757e-04	5.067345e-04
20.0818       	2.681294e-03	5.597130e-04	5.079341e-04
20.0909       	2.903336e-03	5.552625e-04	5.054907e-04
20.1          	3.413438e-03	5.553369e-04	5.140209e-04
20.1091       	2.746296e-03	5.560407e-04	5.070213e-04
20.1182       	2.884535e-03	5.562317e-04	5.056171e-04
20.1273       	2.865728e-03	5.531087e-04	5.054881e-04
20.1364       	2.475046e-03	5.540461e-04	5.070568e-04
20.1455       	2.656017e-03	5.525347e-04	4.994805e-04
20.1545       	2.539322e-03	5.518742e-04	4.958316e-04
20.1636       	2.555542e-03	5.483490e-04	4.943199e-04
20.1727       	2.793444e-03	5.446001e-04	4.918241e-04
20.1818       	2.650582e-03	5.423613e-04	4.904201e-04
20.1909       	2.615891e-03	5.458948e-04	5.013216e-04
20.2          	2.873853e-03	5.451856e-04	4.960650e-04
20.2091       	3.036323e-03	5.436895e-04	5.002196e-04
20.2182       	2.931815e-03	5.462675e-04	5.127578e-04
20.2273       	3.500188e-03	5.486109e-04	5.201325e-04
20.2364       	3.026563e-03	5.500129e-04	5.167124e-04
20.2455       	3.001700e-03	5.468800e-04	5.094001e-04
20.2545       	2.649656e-03	5.426722e-04	4.979861e-04
20.2636       	2.783424e-03	5.458249e-04	4.990627e-04
20.2727       	2.943682e-03	5.445700e-04	5.052519e-04
20.2818       	3.021275e-03	5.429742e-04	5.006538e-04
20.2909       	2.639816e-03	5.421123e-04	4.999441e-04
20.3          	2.887932e-03	5.389674e-04	4.963887e-04
20.3091       	2.609531e-03	5.364697e-04	4.953942e-04
20.3182       	3.193051e-03	5.373777e-04	4.921863e-04
20.3273       	2.623741e-03	5.384265e-04	4.896065e-04
20.3364       	2.974818e-03	5.361941e-04	4.931360e-04
20.3455       	2.431917e-03	5.376581e-04	4.935138e-04
20.3545       	2.339714e-03	5.339181e-04	4.924369e-04
20.3636       	2.985232e-03	5.375832e-04	4.952678e-04
20.3727       	2.674876e-03	5.368597e-04	4.898742e-04
20.3818       	2.439778e-03	5.359797e-04	4.922956e-04
20.3909       	2.564778e-03	5.351196e-04	4.872789e-04
20.4          	2.594452e-03	5.367035e-04	4.897062e-04
20.4091       	2.791412e-03	5.384469e-04	4.910690e-04
20.4182       	2.694847e-03	5.365777e-04	4.979634e-04
20.4273       	2.933035e-03	5.371051e-04	4.971843e-04
20.4364       	3.258878e-03	5.372353e-04	5.035926e-04
20.4455       	3.258452e-03	5.367031e-04	5.069293e-04
20.4545       	2.981328e-03	5.354990e-04	4.972885e-04
20.4636       	3.081942e-03	5.381589e-04	5.007383e-04
20.4727       	3.027982e-03	5.359163e-04	4.997596e-04
20.4818       	2.791328e-03	5.356993e-04	5.073711e-04
20.4909       	3.021937e-03	5.370559e-04	5.112532e-04
20.5          	3.186115e-03	5.403392e-04	5.051160e-04
20.5091       	3.172637e-03	5.368645e-04	5.003847e-04
20.5182       	3.017422e-03	5.383274e-04	4.959387e-04
20.5273       	3.381123e-03	5.375590e-04	4.950213e-04
20.5364       	3.030513e-03	5.343013e-04	4.969933e-04
20.5455       	3.078097e-03	5.366389e-04	4.950949e-04
20.5545       	2.983710e-03	5.344348e-04	4.964779e-04
20.5636       	3.014260e-03	5.381096e-04	4.969059e-04
20.5727       	2.791644e-03	5.405296e-04	4.987068e-04
20.5818       	3.149585e-03	5.399407e-04	4.939857e-04
20.5909       	2.591667e-03	5.442765e-04	4.986618e-04
20.6          	2.812035e-03	5.405134e-04	4.968083e-04
20.6091       	3.269652e-03	5.453210e-04	5.042189e-04
20.6182       	3.229627e-03	5.464842e-04	5.025137e-04
20.6273       	2.788327e-03	5.481824e-04	4.987459e-04
20.6364       	3.035070e-03	5.481767e-04	5.015983e-04
20.6455       	2.752825e-03	5.516767e-04	5.037176e-04
20.6545       	2.578738e-03	5.495669e-04	5.011065e-04
20.6636       	2.899092e-03	5.510408e-04	5.017164e-04
20.6727       	2.482300e-03	5.564695e-04	4.985447e-04
20.6818       	2.490726e-03	5.578185e-04	4.948204e-04
20.6909       	2.834077e-03	5.608707e-04	4.949260e-04
20.7          	2.650022e-03	5.638749e-04	4.932020e-04
20.7091       	2.651449e-03	5.630455e-04	4.953536e-04
20.7182       	2.566804e-03	5.657815e-04	4.945748e-04
20.7273       	2.943177e-03	5.665219e-04	4.995973e-04
20.7364       	2.911329e-03	5.658900e-04	5.039992e-04
20.7455       	2.826420e-03	5.671585e-04	5.005078e-04
20.7545       	2.843604e-03	5.690283e-04	5.052871e-04
20.7636       	2.675068e-03	5.669068e-04	5.039577e-04
20.7727       	2.989782e-03	5.691882e-04	5.026166e-04
20.7818       	3.015431e-03	5.688778e-04	5.020096e-04
20.7909       	2.694320e-03	5.695143e-04	5.039965e-04
20.8          	2.550273e-03	5.716451e-04	4.995409e-04
20.8091       	2.508295e-03	5.695653e-04	4.981863e-04
20.8182       	2.783189e-03	5.676385e-04	4.926791e-04
20.8273       	2.453600e-03	5.683330e-04	4.854790e-04
20.8364       	2.646410e-03	5.663619e-04	4.764157e-04
20.8455       	2.545203e-03	5.624724e-04	4.729997e-04
20.8545       	2.668021e-03	5.633047e-04	4.703060e-04
20.8636       	2.377721e-03	5.643926e-04	4.658653e-04
20.8727       	2.449331e-03	5.649378e-04	4.629374e-04
20.8818       	2.663814e-03	5.648687e-04	4.605041e-04
20.8909       	2.706967e-03	5.653735e-04	4.581966e-04
20.9          	2.624707e-03	5.646674e-04	4.580201e-04
20.9083       	1.958546e-02	5.456566e-04	4.850562e-04
20.9167       	9.599193e-03	5.661490e-04	4.718553e-04
20.925        	6.312069e-03	5.412021e-04	5.707832e-04
20.9333       	4.308665e-03	5.473343e-04	5.101223e-04
20.9417       	3.658491e-03	5.520556e-04	5.398261e-04
20.95         	3.988863e-03	5.505564e-04	4.640875e-04
20.9583       	3.230439e-03	5.496093e-04	4.632394e-04
20.9667       	3.193695e-03	5.459720e-04	4.655588e-04
20.975        	3.016297e-03	5.465193e-04	4.452022e-04
20.9833       	2.886475e-03	5.416375e-04	4.506996e-04
20.9917       	3.696129e-03	5.438698e-04	4.411679e-04
21            	3.697049e-03	5.398652e-04	4.413957e-04
21.0083       	3.063764e-03	5.391217e-04	4.422473e-04
21.0167       	2.906697e-03	5.401291e-04	4.363223e-04
21.025        	2.732787e-03	5.365228e-04	4.367296e-04
21.0333       	2.690939e-03	5.367670e-04	4.344794e-04
21.0417       	2.933954e-03	5.389025e-04	4.316277e-04
21.05         	2.575713e-03	5.334271e-04	4.332720e-04
21.0583       	3.290473e-03	5.337597e-04	4.358771e-04
21.0667       	3.378148e-03	5.341240e-04	4.366222e-04
21.075        	3.055701e-03	5.341992e-04	4.355125e-04
21.0833       	3.295921e-03	5.361995e-04	4.364036e-04
21.0917       	3.149789e-03	5.338249e-04	4.383068e-04
21.1          	2.827229e-03	5.344994e-04	4.379030e-04
21.1083       	3.040704e-03	5.341438e-04	4.382328e-04
21.1167       	2.556965e-03	5.364065e-04	4.403294e-04
21.125        	2.411189e-03	5.373196e-04	4.388978e-04
21.1333       	2.523553e-03	5.331161e-04	4.391544e-04
21.1417       	2.574086e-03	5.375449e-04	4.360401e-04
21.15         	2.401272e-03	5.347476e-04	4.365890e-04
21.1583       	2.613363e-03	5.393253e-04	4.327285e-04
21.1667       	2.299738e-03	5.373792e-04	4.323683e-04
21.175        	2.975973e-03	5.381831e-04	4.340239e-04
21.1833       	2.767103e-03	5.358641e-04	4.353237e-04
21.1917       	2.592988e-03	5.376855e-04	4.333835e-04
21.2          	2.364907e-03	5.376617e-04	4.343253e-04
21.2083       	2.323436e-03	5.382923e-04	4.309839e-04
21.2167       	2.360927e-03	5.366942e-04	4.271194e-04
21.225        	2.558101e-03	5.377242e-04	4.275381e-04
21.2333       	2.465241e-03	5.370242e-04	4.276930e-04
21.2417       	2.320600e-03	5.365164e-04	4.279524e-04
21.25         	2.444926e-03	5.352495e-04	4.241080e-04
21.2583       	2.290827e-03	5.366292e-04	4.204323e-04
21.2667       	2.356597e-03	5.351590e-04	4.150673e-04
21.275        	2.554076e-03	5.301349e-04	4.158931e-04
21.2833       	2.656211e-03	5.295576e-04	4.157239e-04
21.2917       	2.374737e-03	5.282391e-04	4.156273e-04
21.3          	2.690639e-03	5.271374e-04	4.160880e-04
21.3083       	2.495849e-03	5.279277e-04	4.154592e-04
21.3167       	2.652112e-03	5.252205e-04	4.127897e-04
21.325        	2.596996e-03	5.246398e-04	4.141669e-04
21.3333       	2.320367e-03	5.249219e-04	4.131679e-04
21.3417       	2.671151e-03	5.271534e-04	4.096956e-04
21.35         	2.311151e-03	5.231635e-04	4.081143e-04
21.3583       	2.625427e-03	5.230262e-04	4.071735e-04
21.3667       	2.298438e-03	5.200844e-04	4.113273e-04
21.375        	2.481165e-03	5.188248e-04	4.089869e-04
21.3833       	2.383281e-03	5.161105e-04	4.120371e-04
21.3917       	2.212113e-03	5.148303e-04	4.115179e-04
21.4          	2.238349e-03	5.140780e-04	4.095037e-04
21.4083       	2.394677e-03	5.106713e-04	4.107708e-04
21.4167       	2.286864e-03	5.095883e-04	4.092681e-04
21.425        	2.057716e-03	5.116179e-04	4.065496e-04
21.4333       	1.992612e-03	5.083323e-04	4.069265e-04
21.4417       	2.158041e-03	5.101055e-04	4.030260e-04
21.45         	2.394957e-03	5.126778e-04	4.042641e-04
21.4583       	2.249362e-03	5.132186e-04	4.054706e-04
21.4667       	2.548299e-03	5.149741e-04	4.106874e-04
21.475        	2.389081e-03	5.181706e-04	4.105626e-04
21.4833       	2.293038e-03	5.149003e-04	4.165302e-04
21.4917       	2.435425e-03	5.167992e-04	4.172851e-04
21.5          	2.446745e-03	5.224529e-04	4.154847e-04
21.5077       	1.806614e-02	5.030531e-04	4.392437e-04
21.5154       	8.748222e-03	5.159297e-04	4.518699e-04
21.5231       	5.598520e-03	4.956107e-04	4.625409e-04
21.5308       	4.399890e-03	5.005133e-04	4.119115e-04
21.5385       	3.903509e-03	5.036497e-04	4.409670e-04
21.5462       	4.105274e-03	4.997287e-04	4.336403e-04
21.5538       	3.543647e-03	5.052513e-04	4.179109e-04
21.5615       	5.272290e-03	5.026422e-04	5.344363e-04
21.5692       	7.025954e-03	5.127421e-04	4.817752e-04
21.5769       	5.076833e-03	5.076528e-04	5.870582e-04
21.5846       	4.784155e-03	5.150684e-04	4.468538e-04
21.5923       	3.759213e-03	5.029645e-04	4.199437e-04
21.6          	2.888411e-03	4.990383e-04	4.495945e-04
21.6077       	3.287827e-03	5.002841e-04	4.198126e-04
21.6154       	3.337376e-03	5.018462e-04	4.827424e-04
21.6231       	2.940864e-03	5.080565e-04	4.468033e-04
21.6308       	3.463207e-03	5.105665e-04	4.617077e-04
21.6385       	5.041817e-03	5.104532e-04	4.552820e-04
21.6462       	3.854313e-03	5.038006e-04	4.013284e-04
21.6538       	4.361385e-03	5.040947e-04	4.579934e-04
21.6615       	4.458322e-03	5.005523e-04	4.483678e-04
21.6692       	4.058329e-03	5.034820e-04	4.226276e-04
21.6769       	5.090431e-03	5.018371e-04	4.316473e-04
21.6846       	5.519427e-03	4.980275e-04	5.884593e-04
21.6923       	4.520988e-03	5.054625e-04	4.404953e-04
21.7          	3.280711e-03	4.958807e-04	4.018965e-04
21.7077       	2.910347e-03	4.875771e-04	4.340077e-04
21.7154       	2.762491e-03	4.903495e-04	3.941229e-04
21.7231       	3.480926e-03	4.908697e-04	4.626183e-04
21.7308       	2.792363e-03	4.942771e-04	4.267941e-04
21.7385       	2.938476e-03	4.954461e-04	4.536708e-04
21.7462       	4.630661e-03	4.940954e-04	4.467183e-04
21.7538       	3.763403e-03	4.917046e-04	3.908568e-04
21.7615       	3.954246e-03	4.869237e-04	4.521306e-04
21.7692       	4.513460e-03	4.808762e-04	4.414093e-04
21.7769       	3.881250e-03	4.854736e-04	4.105561e-04
21.7846       	4.716865e-03	4.865816e-04	4.146996e-04
21.7923       	5.277152e-03	4.843646e-04	5.728334e-04
21.8          	4.350890e-03	4.952239e-04	4.203268e-04
21.8077       	3.403651e-03	4.869220e-04	3.797163e-04
21.8154       	2.687987e-03	4.792936e-04	4.140981e-04
21.8231       	2.621301e-03	4.758345e-04	3.731816e-04
21.8308       	3.438109e-03	4.743778e-04	4.456097e-04
21.8385       	2.744883e-03	4.754378e-04	4.101883e-04
21.8462       	2.689988e-03	4.767740e-04	4.392930e-04
21.8538       	4.623398e-03	4.731725e-04	4.303960e-04
21.8615       	3.431436e-03	4.702708e-04	3.804036e-04
21.8692       	3.569270e-03	4.662209e-04	4.346380e-04
21.8769       	4.478793e-03	4.645404e-04	4.231622e-04
21.8846       	3.754809e-03	4.657967e-04	3.937224e-04
21.8923       	4.368605e-03	4.706626e-04	4.020550e-04
21.9          	5.501789e-03	4.636468e-04	5.593781e-04
21.9077       	4.862677e-03	4.797940e-04	4.101213e-04
21.9154       	3.942020e-03	4.734553e-04	3.796167e-04
21.9231       	3.787497e-03	4.679255e-04	4.153324e-04
21.9308       	3.537028e-03	4.686296e-04	3.766766e-04
21.9385       	4.304802e-03	4.792639e-04	4.501388e-04
21.9462       	3.513822e-03	4.739780e-04	4.115360e-04
21.9538       	3.303571e-03	4.867709e-04	4.495486e-04
21.9615       	5.063555e-03	4.758740e-04	4.517949e-04
21.9692       	4.092238e-03	4.848669e-04	3.999191e-04
21.9769       	4.254770e-03	4.739927e-04	4.543014e-04
21.9846       	4.936978e-03	4.778223e-04	4.492299e-04
21.9923       	4.559251e-03	4.751759e-04	4.066221e-04
22            	4.644644e-03	4.870141e-04	4.105656e-04
22.0077       	5.684923e-03	4.798600e-04	5.742898e-04
22.0154       	4.578575e-03	4.934115e-04	4.183389e-04
22.0231       	3.263339e-03	4.911130e-04	3.854885e-04
22.0308       	3.518515e-03	4.845663e-04	4.236665e-04
22.0385       	2.788870e-03	4.842629e-04	3.794111e-04
22.0462       	3.493397e-03	4.894517e-04	4.530894e-04
22.0538       	2.984780e-03	4.910318e-04	4.097922e-04
22.0615       	3.108993e-03	4.996237e-04	4.453125e-04
22.0692       	4.434619e-03	4.895184e-04	4.348746e-04
22.0769       	3.849733e-03	4.856462e-04	3.869749e-04
22.0846       	4.547735e-03	4.832907e-04	4.411720e-04
22.0923       	4.485847e-03	4.843949e-04	4.347484e-04
22.1          	3.789726e-03	4.815879e-04	3.968721e-04
22.1077       	4.386434e-03	4.867328e-04	4.060918e-04
22.1154       	5.662491e-03	4.837527e-04	5.569126e-04
22.1231       	4.522597e-03	4.939184e-04	4.076649e-04
22.1308       	3.340550e-03	4.842910e-04	3.774586e-04
22.1385       	3.173762e-03	4.766895e-04	4.120347e-04
22.1462       	2.737059e-03	4.781880e-04	3.672126e-04
22.1538       	3.494396e-03	4.805488e-04	4.400434e-04
22.1615       	2.623317e-03	4.791639e-04	4.027150e-04
22.1692       	2.866533e-03	4.869202e-04	4.331476e-04
22.1769       	4.117224e-03	4.859873e-04	4.219969e-04
22.1846       	3.537429e-03	4.840964e-04	3.755756e-04
22.1923       	3.895428e-03	4.788904e-04	4.319745e-04
22.2          	4.355459e-03	4.788859e-04	4.238235e-04
22.2077       	3.793156e-03	4.779555e-04	3.888950e-04
22.2154       	4.781456e-03	4.805817e-04	4.003236e-04
22.2231       	5.112908e-03	4.765713e-04	5.428607e-04
22.2308       	4.215775e-03	4.829742e-04	4.003990e-04
22.2385       	3.684693e-03	4.803665e-04	3.658428e-04
22.2462       	3.007682e-03	4.756999e-04	4.000513e-04
22.2538       	2.618963e-03	4.746181e-04	3.558476e-04
22.2615       	3.596279e-03	4.747134e-04	4.288790e-04
22.2692       	2.664678e-03	4.753277e-04	3.907952e-04
22.2769       	2.875196e-03	4.799550e-04	4.182937e-04
22.2846       	4.394533e-03	4.771479e-04	4.093679e-04
22.2923       	3.336302e-03	4.739346e-04	3.583192e-04
22.3          	3.642554e-03	4.687110e-04	4.131607e-04
22.3071       	1.899834e-02	4.584879e-04	4.192347e-04
22.3143       	8.476359e-03	4.612631e-04	3.658557e-04
22.3214       	8.978627e-03	4.470427e-04	6.280839e-04
22.3286       	6.523459e-03	4.723473e-04	4.202144e-04
22.3357       	3.695643e-03	4.528655e-04	3.515070e-04
22.3429       	3.587275e-03	4.477774e-04	3.724312e-04
22.35         	3.346469e-03	4.459804e-04	4.065091e-04
22.3571       	3.693686e-03	4.509157e-04	4.083958e-04
22.3643       	3.726453e-03	4.524603e-04	4.492987e-04
22.3714       	4.733655e-03	4.610562e-04	3.765409e-04
22.3786       	4.929586e-03	4.530016e-04	4.588464e-04
22.3857       	9.673591e-03	4.571981e-04	6.121333e-04
22.3929       	4.420622e-03	4.648839e-04	4.965654e-04
22.4          	4.150168e-03	4.611527e-04	3.791862e-04
22.4071       	3.856214e-03	4.478904e-04	3.914367e-04
22.4143       	2.826381e-03	4.458754e-04	3.852406e-04
22.4214       	3.860672e-03	4.505797e-04	4.449842e-04
22.4286       	2.878635e-03	4.534347e-04	4.290579e-04
22.4357       	3.494867e-03	4.617704e-04	3.717249e-04
22.4429       	3.553258e-03	4.604879e-04	3.767815e-04
22.45         	8.613492e-03	4.576045e-04	5.255353e-04
22.4571       	4.668297e-03	4.622163e-04	5.032937e-04
22.4643       	4.575699e-03	4.630833e-04	3.661481e-04
22.4714       	3.381359e-03	4.512037e-04	3.630890e-04
22.4786       	2.870028e-03	4.496713e-04	3.699574e-04
22.4857       	3.399219e-03	4.529440e-04	4.167096e-04
22.4929       	2.745015e-03	4.574413e-04	4.082869e-04
22.5          	3.148772e-03	4.620640e-04	3.888031e-04
22.5071       	4.028499e-03	4.615158e-04	3.956743e-04
22.5143       	8.413427e-03	4.558121e-04	5.213964e-04
22.5214       	7.509502e-03	4.617398e-04	5.631316e-04
22.5286       	4.169526e-03	4.699225e-04	4.027634e-04
22.5357       	4.031039e-03	4.635707e-04	3.526564e-04
22.5429       	3.148068e-03	4.566001e-04	3.755550e-04
22.55         	3.464977e-03	4.582698e-04	4.131677e-04
22.5571       	2.913165e-03	4.666516e-04	4.169796e-04
22.5643       	3.457423e-03	4.699959e-04	4.018204e-04
22.5714       	4.231885e-03	4.715278e-04	3.863103e-04
22.5786       	8.194697e-03	4.672962e-04	5.182737e-04
22.5857       	6.819601e-03	4.750370e-04	5.165681e-04
22.5929       	2.889548e-03	4.765390e-04	4.534780e-04
22.6          	4.192952e-03	4.785297e-04	3.536730e-04
22.6071       	3.150099e-03	4.644331e-04	3.695652e-04
22.6143       	3.119506e-03	4.663254e-04	3.875546e-04
22.6214       	3.228587e-03	4.689468e-04	4.337848e-04
22.6286       	3.304290e-03	4.742932e-04	3.849603e-04
22.6357       	3.128959e-03	4.738667e-04	3.823452e-04
22.6429       	6.935995e-03	4.705543e-04	4.594499e-04
22.65         	5.237046e-03	4.759294e-04	4.448033e-04
22.6571       	3.801696e-03	4.714457e-04	4.753178e-04
22.6643       	4.264159e-03	4.754577e-04	3.550339e-04
22.6714       	3.674927e-03	4.731290e-04	3.667616e-04
22.6786       	3.205516e-03	4.725598e-04	3.908637e-04
22.6857       	3.383966e-03	4.753492e-04	4.284761e-04
22.6929       	2.923309e-03	4.860113e-04	3.748354e-04
22.7          	3.463178e-03	4.867204e-04	4.137159e-04
22.7071       	7.697740e-03	4.884982e-04	4.772310e-04
22.7143       	5.063446e-03	4.920405e-04	4.362652e-04
22.7214       	6.946186e-03	4.827175e-04	5.400329e-04
22.7286       	4.401958e-03	4.858767e-04	3.863262e-04
22.7357       	3.733089e-03	4.869075e-04	3.522522e-04
22.7429       	3.402492e-03	4.802725e-04	3.895213e-04
22.75         	3.451916e-03	4.794076e-04	4.111219e-04
22.7571       	3.508210e-03	4.837131e-04	3.794876e-04
22.7643       	3.773014e-03	4.834160e-04	4.270550e-04
22.7714       	7.758356e-03	4.873345e-04	4.677129e-04
22.7786       	5.124346e-03	4.847448e-04	4.305325e-04
22.7857       	6.168727e-03	4.755793e-04	4.893927e-04
22.7929       	3.364562e-03	4.770984e-04	4.368037e-04
22.8          	3.442930e-03	4.805739e-04	3.535853e-04
22.8071       	3.639512e-03	4.728907e-04	3.922481e-04
22.8143       	2.801446e-03	4.723578e-04	3.953971e-04
22.8214       	3.327015e-03	4.767407e-04	3.991846e-04
22.8286       	2.925637e-03	4.776544e-04	4.012808e-04
22.8357       	6.954170e-03	4.808063e-04	4.618093e-04
22.8429       	4.049446e-03	4.806429e-04	3.611356e-04
22.85         	4.082637e-03	4.676907e-04	4.088307e-04
22.8571       	4.191022e-03	4.651689e-04	4.540987e-04
22.8643       	4.210864e-03	4.719780e-04	3.510703e-04
22.8714       	3.814014e-03	4.633545e-04	3.769189e-04
22.8786       	3.371073e-03	4.603137e-04	3.894106e-04
22.8857       	3.207007e-03	4.691923e-04	3.848915e-04
22.8929       	2.855162e-03	4.673637e-04	3.885567e-04
22.9          	7.357897e-03	4.685149e-04	4.817817e-04
22.9071       	5.082979e-03	4.711137e-04	3.737782e-04
22.9143       	4.753616e-03	4.593870e-04	4.167954e-04
22.9214       	7.757404e-03	4.555450e-04	5.139584e-04
22.9286       	4.300860e-03	4.559431e-04	3.741277e-04
22.9357       	3.676469e-03	4.596413e-04	3.495978e-04
22.9429       	3.196152e-03	4.526830e-04	3.727148e-04
22.95         	2.900438e-03	4.548435e-04	3.625516e-04
22.9571       	2.737747e-03	4.599311e-04	3.788214e-04
22.9643       	6.934151e-03	4.579038e-04	4.830683e-04
22.9714       	4.608624e-03	4.633167e-04	3.567311e-04
22.9786       	4.036349e-03	4.514172e-04	4.006849e-04
22.9857       	6.323624e-03	4.487166e-04	4.588552e-04
22.9929       	2.856580e-03	4.466456e-04	4.130036e-04
23            	3.465470e-03	4.525117e-04	3.474753e-04
23.0071       	3.201367e-03	4.413873e-04	3.709451e-04
23.0143       	2.582087e-03	4.482714e-04	3.368262e-04
23.0214       	3.461201e-03	4.470977e-04	3.955486e-04
23.0286       	6.807739e-03	4.463172e-04	4.628882e-04
23.0357       	4.111388e-03	4.560459e-04	3.500533e-04
23.0429       	2.588517e-03	4.438038e-04	3.425798e-04
23.05         	4.570138e-03	4.400309e-04	3.919325e-04
23.0571       	3.534141e-03	4.363112e-04	4.326197e-04
23.0643       	3.714374e-03	4.432853e-04	3.462916e-04
23.0714       	3.345753e-03	4.373412e-04	3.578593e-04
23.0786       	2.893526e-03	4.412511e-04	3.296480e-04
23.0857       	3.171755e-03	4.409270e-04	3.824173e-04
23.0929       	6.625732e-03	4.446641e-04	4.425382e-04
23.1          	4.769671e-03	4.482438e-04	3.745405e-04
23.1071       	4.047442e-03	4.418937e-04	3.438075e-04
23.1143       	4.734835e-03	4.391092e-04	3.748909e-04
23.1214       	6.853748e-03	4.406212e-04	4.977056e-04
23.1286       	4.805521e-03	4.478264e-04	3.782955e-04
23.1357       	3.554380e-03	4.540415e-04	3.439342e-04
23.1429       	3.887683e-03	4.495269e-04	3.327028e-04
23.15         	3.546037e-03	4.518524e-04	3.789316e-04
23.1571       	6.859191e-03	4.578705e-04	4.546095e-04
23.1643       	4.050211e-03	4.634558e-04	3.870295e-04
23.1714       	3.642789e-03	4.567135e-04	3.357533e-04
23.1786       	4.105855e-03	4.537459e-04	3.708069e-04
23.1857       	5.999389e-03	4.532829e-04	4.493842e-04
23.1929       	2.867763e-03	4.551937e-04	4.275440e-04
23.2          	3.241018e-03	4.607399e-04	3.444276e-04
23.2071       	3.171065e-03	4.520556e-04	3.312050e-04
23.2143       	3.499548e-03	4.532102e-04	3.528618e-04
23.2214       	7.060359e-03	4.578201e-04	4.667949e-04
23.2286       	4.089075e-03	4.619696e-04	3.647844e-04
23.2357       	2.570145e-03	4.536861e-04	3.396221e-04
23.2429       	3.348003e-03	4.487849e-04	3.117493e-04
23.25         	4.028604e-03	4.458860e-04	3.738969e-04
23.2571       	3.884099e-03	4.447812e-04	4.584406e-04
23.2643       	4.097090e-03	4.548964e-04	3.547157e-04
23.2714       	2.734166e-03	4.481103e-04	3.324315e-04