/*--------------------------------*- C++ -*----------------------------------*\
  =========                 |
  \\      /  F ield         | OpenFOAM: The Open Source CFD Toolbox
   \\    /   O peration     | Website:  https://openfoam.org
    \\  /    A nd           | Version:  8
     \\/     M anipulation  |
\*---------------------------------------------------------------------------*/
FoamFile
{
    version     2.0;
    format      ascii;
    class       volScalarField;
    location    "7.2";
    object      p;
}
// * * * * * * * * * * * * * * * * * * * * * * * * * * * * * * * * * * * * * //

dimensions      [0 2 -2 0 0 0 0];

internalField   nonuniform List<scalar> 
1642
(
8.25803e-05
6.90511e-05
6.78405e-05
7.18383e-05
8.26368e-05
8.25794e-05
8.24302e-05
8.24757e-05
8.23242e-05
8.25216e-05
7.39216e-05
8.18201e-05
8.25481e-05
8.24935e-05
8.24348e-05
8.19676e-05
8.2531e-05
8.25618e-05
8.25973e-05
8.25904e-05
8.25316e-05
8.2384e-05
8.2545e-05
8.18658e-05
8.25282e-05
8.23376e-05
8.26039e-05
7.9623e-05
1.71865e-06
1.57716e-06
1.52634e-06
8.25594e-05
8.06118e-05
8.25773e-05
8.25563e-05
8.24205e-05
8.17939e-05
8.2588e-05
8.24853e-05
8.24843e-05
8.26258e-05
8.25961e-05
8.25934e-05
6.20789e-05
8.53605e-05
8.25543e-05
8.26149e-05
8.25916e-05
8.2592e-05
8.25152e-05
8.25968e-05
8.25927e-05
8.25839e-05
7.1925e-05
7.29506e-05
8.23962e-05
8.23743e-05
8.25623e-05
8.17661e-05
8.27254e-05
8.2563e-05
8.25688e-05
8.25977e-05
8.2145e-05
8.24225e-05
8.25907e-05
8.25824e-05
8.2591e-05
8.23848e-05
8.25991e-05
8.26094e-05
8.25264e-05
8.26124e-05
8.26751e-05
8.24885e-05
8.21813e-05
6.65706e-07
7.08016e-07
7.53003e-07
8.25494e-05
8.25891e-05
8.25895e-05
8.15574e-05
8.2493e-05
8.38423e-05
8.21311e-05
8.23058e-05
8.25221e-05
8.22812e-05
8.25716e-05
8.25242e-05
8.24984e-05
8.23095e-05
8.23747e-05
8.24513e-05
8.24794e-05
8.25392e-05
8.2486e-05
8.24904e-05
8.2328e-05
8.2338e-05
8.19667e-05
8.25561e-05
2.7191e-05
2.87899e-05
3.09511e-05
3.10141e-05
3.79535e-05
2.38858e-05
2.10949e-05
3.88177e-05
2.36531e-05
3.78565e-05
9.42277e-06
9.80192e-06
7.19375e-06
6.86611e-06
4.12245e-06
5.09291e-05
5.50167e-05
6.94344e-06
5.05767e-05
4.94921e-05
8.21194e-05
8.24492e-05
8.26556e-05
8.25831e-05
8.25806e-05
8.2519e-05
8.24961e-05
8.26341e-05
8.25172e-05
8.25689e-05
8.33813e-05
8.2587e-05
8.25929e-05
8.25327e-05
8.26033e-05
8.25558e-05
8.16422e-05
8.24827e-05
8.25928e-05
8.25881e-05
8.2618e-05
8.24513e-05
8.2555e-05
8.26559e-05
8.2592e-05
8.26234e-05
8.2544e-05
8.25575e-05
8.26051e-05
8.25865e-05
8.25626e-05
8.20685e-05
8.26666e-05
8.26583e-05
8.25967e-05
8.25614e-05
8.253e-05
8.25932e-05
8.25907e-05
8.25554e-05
8.2466e-05
8.25796e-05
8.26136e-05
8.26499e-05
8.25827e-05
8.26004e-05
8.24011e-05
8.24676e-05
8.25715e-05
8.25967e-05
8.25861e-05
8.25685e-05
8.25868e-05
8.25217e-05
8.25405e-05
8.25631e-05
8.38471e-05
8.23384e-05
8.25935e-05
8.20226e-05
8.25979e-05
8.25908e-05
8.25022e-05
8.26108e-05
8.25883e-05
8.24803e-05
8.24111e-05
8.23924e-05
8.25913e-05
8.25901e-05
8.25012e-05
8.26498e-05
8.24766e-05
8.21051e-05
8.25866e-05
8.24137e-05
8.25526e-05
8.259e-05
8.25976e-05
8.22043e-05
8.24314e-05
8.24092e-05
8.25916e-05
8.25563e-05
2.89715e-05
2.49909e-05
2.32085e-05
2.34176e-05
2.51184e-05
2.96635e-05
3.05148e-05
2.59184e-05
3.99941e-05
2.97178e-05
4.08546e-05
2.40777e-05
2.79636e-05
3.32e-05
2.25262e-05
3.48987e-05
1.57021e-05
3.15066e-05
2.31369e-05
2.40226e-05
4.85902e-05
2.5926e-05
2.23038e-05
4.15681e-05
3.04423e-05
3.39074e-05
2.42302e-05
3.22108e-05
2.7109e-05
2.87017e-05
3.56052e-05
4.42706e-05
2.06093e-05
4.92965e-05
3.14506e-05
4.25676e-05
5.06979e-05
2.08529e-05
7.61488e-06
4.3266e-05
5.01309e-05
5.13041e-05
7.28103e-06
7.24276e-06
3.65877e-05
5.30886e-05
5.05077e-05
1.15135e-05
1.10588e-05
1.38337e-05
4.82883e-05
3.28705e-05
1.19306e-05
4.77107e-05
4.57306e-05
4.66381e-05
7.57469e-06
5.06249e-05
4.47829e-05
2.22117e-05
3.49155e-05
5.24112e-05
4.10039e-05
4.48949e-05
1.06582e-05
1.3823e-05
4.40019e-05
4.73032e-05
5.70141e-05
4.27008e-05
3.8364e-05
3.74305e-05
3.90997e-05
2.16795e-05
1.27631e-05
3.81585e-05
5.59499e-05
5.63185e-06
1.53888e-05
3.21774e-05
4.95302e-05
1.53612e-05
3.54959e-05
1.49065e-05
2.03318e-05
4.02892e-05
1.91496e-05
1.23289e-05
3.39042e-05
5.58558e-06
5.85528e-05
6.25361e-05
3.66369e-05
1.10664e-05
8.08229e-06
1.01836e-05
1.75342e-05
8.43179e-06
3.19545e-05
1.77849e-06
2.0308e-05
8.93143e-06
9.79893e-06
9.29769e-06
2.14354e-05
4.7037e-05
5.41742e-05
4.08629e-05
1.48745e-05
1.84521e-05
1.10398e-05
2.4063e-05
4.02379e-06
6.16412e-05
2.50799e-05
3.46052e-06
3.14277e-05
5.29723e-05
5.98551e-05
3.13105e-05
4.98258e-05
1.59302e-06
3.74867e-05
4.24215e-05
4.56978e-05
8.31244e-06
1.36435e-05
3.06594e-05
1.40473e-05
1.01213e-05
8.27533e-06
2.68086e-05
2.12413e-05
1.94091e-05
2.75389e-05
5.39883e-05
2.92345e-05
1.31939e-05
5.48384e-05
5.84366e-05
5.67937e-05
1.99804e-05
1.31864e-05
3.99739e-05
4.93413e-05
1.01397e-05
6.0042e-05
1.45127e-05
3.28127e-06
1.36364e-05
3.52332e-06
5.99139e-05
1.88608e-05
2.77369e-05
2.57751e-05
2.42664e-05
2.66632e-05
2.57925e-05
1.96891e-05
2.86906e-05
3.90094e-05
2.77558e-05
5.96898e-05
2.02674e-06
3.73578e-05
3.75011e-05
1.71093e-05
2.49065e-05
5.34836e-05
3.65619e-05
4.63764e-05
4.66283e-05
4.19151e-05
3.82813e-05
4.01309e-05
1.56733e-05
2.6637e-05
1.79808e-05
1.65919e-05
2.81222e-05
6.44895e-06
2.98179e-05
2.59761e-05
3.98591e-05
5.38394e-05
2.8657e-05
6.76225e-06
4.98601e-05
4.25515e-06
5.71238e-05
2.08301e-05
3.31787e-05
1.7443e-05
5.02283e-05
3.472e-05
4.12216e-05
7.40189e-06
4.78397e-06
1.28939e-05
6.45943e-06
3.30596e-05
4.49382e-05
1.65822e-05
3.5636e-05
4.07158e-05
4.75472e-05
1.75403e-05
5.11051e-05
5.04178e-05
4.92845e-05
6.41426e-06
5.2893e-05
3.05834e-05
6.72857e-06
3.36513e-05
1.01583e-05
6.50281e-06
1.47644e-05
3.99952e-06
3.40487e-05
1.29175e-05
3.57775e-05
2.3095e-05
4.21499e-05
4.38123e-05
4.28478e-05
1.79616e-05
1.74263e-05
3.84188e-05
5.15403e-05
3.64293e-05
4.79588e-05
2.495e-05
3.73634e-05
5.11982e-05
3.47568e-05
2.21642e-05
1.47458e-05
1.88245e-05
1.23528e-05
2.05675e-05
4.80052e-05
1.27867e-05
3.23499e-05
5.58923e-05
3.92267e-05
3.92042e-05
3.73057e-05
4.56605e-05
3.90205e-06
1.71006e-05
4.74754e-05
1.84744e-05
3.30418e-05
3.22642e-06
3.37895e-05
5.19877e-05
4.58621e-05
5.11557e-05
5.45438e-05
3.5744e-05
4.6791e-05
3.47657e-05
5.67751e-05
4.87068e-05
6.03606e-05
4.38493e-05
5.49048e-05
4.84496e-05
4.47742e-05
9.1944e-06
4.69873e-06
2.33804e-05
3.1364e-05
3.82789e-05
1.19655e-05
2.60882e-06
2.31726e-05
2.17092e-05
1.78804e-05
9.30824e-06
2.68345e-05
5.1758e-05
2.90148e-05
4.17763e-05
4.36445e-05
1.91293e-05
4.72441e-05
3.45753e-05
4.55293e-05
2.7501e-05
3.64557e-05
6.56562e-05
2.81252e-06
4.17079e-05
4.64212e-05
5.06496e-06
6.35211e-05
3.23528e-05
4.66032e-05
1.62299e-05
1.57263e-05
2.93191e-05
4.91629e-05
3.65022e-05
3.82271e-05
1.1026e-05
5.20937e-05
1.82773e-05
2.95798e-05
2.49336e-05
1.35041e-05
5.26279e-05
2.14744e-05
1.44964e-05
1.40283e-05
5.59244e-05
5.40169e-05
5.83539e-05
2.75102e-06
2.53112e-05
4.30748e-05
8.94011e-06
3.06465e-06
4.40956e-05
4.29188e-05
4.10615e-05
6.49948e-05
5.92451e-06
4.19884e-05
2.5404e-05
5.08012e-06
4.76892e-05
1.97479e-05
2.61018e-05
4.86278e-05
7.36224e-06
2.54131e-06
2.76171e-05
9.77455e-06
5.6929e-05
2.58789e-05
4.45953e-05
4.50917e-05
1.06256e-05
3.15237e-06
2.1263e-05
5.60348e-05
4.83663e-05
3.00998e-05
1.5751e-05
3.01699e-05
4.2854e-06
1.60486e-05
4.51542e-05
2.69654e-05
4.34217e-05
2.96288e-05
1.14758e-05
9.22253e-06
5.88385e-06
1.26537e-05
2.95735e-05
3.9356e-05
2.8467e-05
5.21956e-05
3.35568e-05
2.99436e-05
1.39591e-05
5.19319e-05
4.58664e-05
1.82975e-05
4.90628e-05
2.67694e-05
2.78339e-05
3.05024e-05
2.00045e-05
3.40518e-05
3.23146e-05
3.10197e-05
3.17967e-05
2.88152e-05
4.01072e-05
3.08702e-05
2.62564e-05
4.99811e-05
2.71633e-05
8.1143e-06
2.83658e-05
4.03558e-05
5.57039e-06
1.13579e-05
1.18934e-05
8.46662e-06
3.56407e-05
2.5236e-05
1.68957e-05
2.25742e-05
3.70362e-05
2.809e-05
3.91353e-05
4.99841e-05
4.80782e-06
1.9377e-05
3.52974e-05
4.86879e-05
1.19975e-05
3.60722e-05
1.97374e-05
4.8959e-06
1.62501e-05
3.61677e-05
1.23156e-05
2.40381e-05
1.88081e-05
1.09501e-05
4.95531e-05
1.7744e-05
4.81301e-05
5.00321e-05
2.62376e-05
4.06907e-05
5.19142e-06
5.06142e-05
3.18691e-05
1.48243e-05
4.46584e-05
1.65573e-05
4.16181e-05
4.31159e-05
2.23494e-05
1.41725e-05
4.34727e-05
2.03062e-05
1.82933e-05
1.85968e-05
1.91615e-05
3.08912e-06
3.35698e-06
4.20472e-05
4.13185e-05
2.19895e-06
4.11998e-05
1.43534e-05
3.44276e-05
1.30932e-05
1.74256e-05
1.52023e-05
1.56908e-05
4.21855e-05
4.53248e-05
4.37671e-05
4.41293e-05
5.00931e-05
3.6985e-05
3.69991e-05
3.79003e-05
1.22267e-05
5.07719e-05
5.62066e-06
2.11588e-05
5.00589e-05
2.20074e-05
4.43985e-05
5.78361e-05
2.1591e-05
1.18024e-05
1.94504e-05
4.86169e-05
3.61364e-05
4.2546e-05
5.30384e-05
2.44996e-06
3.52821e-05
3.27206e-05
3.44276e-05
5.4509e-05
3.85362e-06
4.29003e-05
3.35734e-05
3.27226e-05
5.38565e-05
5.10858e-05
1.66036e-05
5.00366e-05
4.71877e-05
1.32441e-05
4.60924e-05
1.66219e-05
4.74489e-05
4.00146e-06
4.28369e-06
4.62541e-05
4.90901e-05
1.13857e-05
2.06643e-05
1.51011e-05
1.69544e-05
1.60331e-05
4.75367e-06
5.00757e-05
8.25956e-05
8.25846e-05
8.25861e-05
8.26278e-05
8.24697e-05
8.25947e-05
8.2468e-05
8.25755e-05
8.25546e-05
8.25956e-05
8.25721e-05
3.18699e-05
3.00375e-05
2.88797e-05
2.54133e-05
2.73475e-05
2.79336e-05
2.80318e-05
2.726e-05
2.53285e-05
3.3972e-05
3.60986e-05
3.30798e-05
3.70247e-05
2.63353e-05
3.14378e-05
3.57138e-05
4.01994e-05
3.48468e-05
3.05849e-05
2.97351e-05
3.65808e-05
3.31354e-05
1.79754e-05
2.16812e-05
1.78354e-05
1.95468e-05
1.92474e-05
1.89064e-05
1.83847e-05
2.20924e-05
3.2291e-05
2.12471e-05
2.07571e-05
2.03981e-05
1.86898e-05
2.63499e-05
1.9836e-05
1.75133e-05
3.70086e-05
4.11384e-05
4.09136e-05
1.61297e-05
4.20703e-05
1.69826e-05
4.30023e-05
3.39842e-05
4.04136e-05
1.6645e-05
3.61656e-05
1.49044e-05
1.4429e-05
4.39251e-05
4.57815e-05
1.61229e-05
1.57721e-05
1.52776e-05
4.7632e-05
4.4853e-05
1.70492e-05
1.35824e-05
4.18071e-05
1.40397e-05
4.46584e-05
4.27209e-05
1.24093e-05
4.07729e-05
4.67083e-05
4.36743e-05
4.85659e-05
1.42641e-05
1.31717e-05
1.27307e-05
4.95009e-05
4.56389e-05
1.18848e-05
1.23102e-05
1.14819e-05
4.41608e-05
4.85794e-05
5.13577e-05
4.6605e-05
4.24757e-05
1.334e-05
4.16291e-05
4.75752e-05
4.75704e-05
4.33175e-05
5.05857e-05
5.3798e-05
5.04312e-05
1.51899e-05
5.09017e-05
4.83809e-05
5.36154e-06
5.44599e-05
5.07836e-06
3.72447e-06
4.52119e-06
4.25552e-06
4.97234e-05
3.47689e-06
2.78185e-06
5.77191e-05
3.00295e-06
5.9033e-05
5.17293e-05
8.20622e-05
8.14871e-05
8.25965e-05
8.25917e-05
8.25417e-05
8.26119e-05
8.25828e-05
8.20548e-05
3.51426e-05
3.21979e-05
3.9767e-05
2.26353e-05
2.28506e-05
2.00256e-05
3.95189e-05
2.25161e-05
4.04732e-05
8.38064e-06
8.73829e-06
4.76268e-05
6.21691e-06
5.91739e-06
8.58669e-06
5.91177e-06
5.6162e-05
2.80789e-06
5.09752e-05
4.95658e-05
5.13635e-05
8.25848e-05
3.51693e-05
3.18833e-05
3.98153e-05
1.93505e-05
2.19646e-05
2.21862e-05
3.95562e-05
2.17879e-05
4.05388e-05
7.72508e-06
8.06898e-06
4.75844e-05
6.31923e-06
5.63432e-05
6.00855e-06
7.87233e-06
5.0479e-05
6.00985e-06
5.0036e-05
5.23444e-05
8.25955e-05
8.26215e-05
8.25663e-05
8.25797e-05
8.25776e-05
8.25992e-05
8.25347e-05
8.25131e-05
8.2598e-05
8.26006e-05
8.25265e-05
8.25736e-05
8.25556e-05
8.25922e-05
8.25865e-05
8.24835e-05
8.25949e-05
8.22818e-05
8.22449e-05
8.25959e-05
8.26396e-05
8.25917e-05
8.25899e-05
8.19499e-05
8.14168e-05
8.23638e-05
8.25279e-05
8.24306e-05
8.25978e-05
8.24361e-05
8.2566e-05
8.2544e-05
8.20677e-05
8.25166e-05
8.31585e-05
8.25328e-05
8.25931e-05
8.26028e-05
8.25736e-05
8.25824e-05
8.25471e-05
8.25904e-05
8.23769e-05
8.25243e-05
8.10892e-05
8.25685e-05
8.25734e-05
8.25392e-05
8.25846e-05
8.25272e-05
8.25965e-05
8.25983e-05
8.26182e-05
8.24761e-05
8.25128e-05
8.25256e-05
8.25615e-05
8.25364e-05
8.23511e-05
8.25668e-05
8.26093e-05
8.25335e-05
8.2523e-05
8.24739e-05
8.26165e-05
8.259e-05
4.95257e-05
5.55734e-05
4.65572e-05
3.96201e-05
3.86677e-05
3.88361e-05
3.42107e-05
2.49143e-06
8.24573e-05
8.2452e-05
8.24262e-05
8.24276e-05
8.25661e-05
8.25864e-05
8.25381e-05
3.26916e-05
8.25446e-05
6.75933e-06
7.08367e-06
2.68328e-05
5.0999e-05
5.27583e-05
6.83353e-06
5.56025e-05
5.09269e-05
7.65196e-06
4.76938e-06
4.14562e-06
5.11482e-05
7.86644e-06
7.52466e-06
5.01733e-05
1.00968e-05
1.04564e-05
1.04882e-05
9.32904e-06
9.70262e-06
2.88598e-05
3.91444e-05
3.83293e-05
3.8205e-05
2.17684e-05
2.09861e-05
2.72798e-05
2.43829e-05
3.05599e-05
3.10405e-05
2.35484e-05
2.84107e-05
2.43718e-05
3.1348e-05
2.45534e-05
2.37955e-05
8.24273e-05
8.24241e-05
8.25118e-05
8.26046e-05
8.23823e-05
8.24635e-05
8.25903e-05
8.10483e-05
8.13886e-05
2.30394e-05
2.27229e-05
2.2833e-05
3.42579e-05
2.0225e-05
3.88868e-05
8.80551e-06
3.27388e-05
3.8708e-05
5.06127e-06
8.93861e-06
3.96893e-05
5.06791e-05
3.22384e-06
8.57624e-06
4.65937e-05
5.55896e-05
4.94108e-05
5.44051e-06
5.14494e-06
5.11612e-05
8.24424e-05
8.25616e-05
8.2454e-05
8.25914e-05
8.24377e-05
8.25104e-05
8.25529e-05
3.33343e-05
2.36943e-05
4.56402e-05
9.73011e-06
8.29154e-05
8.11713e-05
8.26004e-05
8.25025e-05
8.237e-05
8.22813e-05
8.23404e-05
8.25297e-05
8.2575e-05
8.25543e-05
8.23648e-05
8.25931e-05
8.20724e-05
8.22332e-05
8.23674e-05
8.25767e-05
8.23105e-05
8.25874e-05
8.25995e-05
8.25888e-05
8.24033e-05
8.26536e-05
8.25848e-05
8.25645e-05
8.25623e-05
8.24615e-05
8.25783e-05
8.25936e-05
8.24058e-05
8.2578e-05
8.25252e-05
8.24865e-05
8.25833e-05
8.25885e-05
8.25525e-05
8.246e-05
8.2627e-05
2.49095e-06
2.05841e-06
2.21846e-06
1.05511e-05
4.50134e-05
2.44678e-05
3.27907e-05
5.31387e-05
4.9737e-05
5.2283e-05
1.06707e-05
1.02761e-05
2.45819e-05
3.79505e-05
3.5324e-05
2.47346e-05
3.01488e-05
2.82764e-05
2.6276e-05
8.24951e-05
8.25199e-05
8.24354e-05
8.24513e-05
8.21504e-05
8.25086e-05
8.26022e-05
8.25918e-05
8.2179e-05
8.25863e-05
8.24775e-05
8.25162e-05
8.2491e-05
8.25115e-05
8.22558e-05
8.24852e-05
8.25171e-05
8.25136e-05
8.24792e-05
5.65362e-05
5.12836e-05
5.73995e-06
5.40796e-05
8.68225e-06
5.0655e-05
3.35264e-06
5.77665e-06
6.08595e-06
8.82234e-06
8.46601e-06
4.6706e-05
3.90489e-05
2.2609e-05
4.00134e-05
2.01112e-05
3.9251e-05
2.27241e-05
3.4621e-05
2.29388e-05
3.18221e-05
5.56706e-05
5.105e-05
5.17848e-05
5.73853e-05
2.57948e-06
7.61482e-06
3.67783e-06
2.82632e-06
3.41338e-06
7.9565e-06
4.97991e-05
6.6984e-06
5.06208e-05
4.99689e-05
4.27577e-06
5.50539e-05
5.40289e-05
6.65456e-06
5.00678e-05
5.11384e-05
1.25049e-05
4.55695e-06
6.98004e-06
5.48145e-05
3.77445e-06
7.75953e-06
5.0164e-06
4.85002e-05
4.85668e-05
1.15812e-05
1.3429e-05
5.11075e-05
4.78184e-05
1.89887e-05
9.52156e-06
1.43562e-05
9.61237e-06
4.73538e-05
9.23745e-06
4.55809e-05
3.99128e-05
4.38409e-05
4.63988e-05
5.01287e-05
1.50017e-05
1.19769e-05
1.24034e-05
4.52987e-05
1.28263e-05
1.32683e-05
4.91537e-05
1.4526e-05
1.99187e-05
4.2972e-05
1.62127e-05
1.80649e-05
1.3676e-05
4.42244e-05
4.81992e-05
1.52866e-05
4.2118e-05
2.08538e-05
4.32108e-05
1.41346e-05
4.72582e-05
1.58664e-05
1.53733e-05
4.22713e-05
1.7138e-05
4.12664e-05
4.13954e-05
4.53906e-05
1.62206e-05
1.67315e-05
1.84744e-05
3.78263e-05
4.63227e-05
1.79134e-05
3.73712e-05
4.44613e-05
1.76004e-05
4.0748e-05
3.87604e-05
4.35351e-05
4.261e-05
1.70669e-05
4.16799e-05
3.79173e-05
3.55679e-05
2.08954e-05
1.87606e-05
1.96165e-05
3.74191e-05
3.5346e-05
2.18582e-05
3.62164e-05
3.65083e-05
2.34481e-05
3.65286e-05
2.04752e-05
3.01265e-05
3.44745e-05
3.14841e-05
3.36066e-05
2.13309e-05
3.09603e-05
2.35025e-05
3.36272e-05
3.32799e-05
3.27748e-05
2.76853e-05
2.64263e-05
3.1076e-05
3.19243e-05
2.36992e-05
2.85377e-05
3.02305e-05
2.80006e-05
2.93877e-05
2.64318e-05
8.23719e-05
8.24979e-05
9.61327e-06
4.58593e-05
2.36015e-05
3.3707e-05
8.25848e-05
8.25809e-05
8.23074e-05
8.22718e-05
8.19726e-05
8.22843e-05
8.24476e-05
8.25879e-05
8.25777e-05
8.24164e-05
8.21762e-05
8.24832e-05
8.2689e-05
8.25175e-05
8.26096e-05
8.2447e-05
8.25918e-05
2.70687e-05
2.91199e-05
2.96473e-05
4.97493e-05
3.74488e-05
5.29925e-05
4.90927e-05
3.48285e-05
2.55028e-05
1.10391e-05
1.14476e-05
2.54126e-05
5.24779e-05
8.18586e-05
8.25399e-05
8.25903e-05
8.25923e-05
8.25864e-05
8.24872e-05
8.25878e-05
8.24055e-05
6.64232e-05
8.25867e-05
8.25436e-05
8.21033e-05
8.25761e-05
8.25878e-05
8.22654e-05
8.2675e-05
8.22294e-05
8.19039e-05
1.06556e-05
4.47302e-05
2.45537e-05
3.24092e-05
5.10874e-05
4.96306e-05
5.20778e-05
4.93172e-05
1.05846e-05
1.01939e-05
3.83017e-05
3.56795e-05
2.44834e-05
2.46535e-05
3.05031e-05
2.81932e-05
2.62005e-05
8.2329e-05
8.26584e-05
8.26009e-05
8.14081e-05
8.23818e-05
5.49937e-05
4.93655e-05
4.95226e-05
5.31842e-05
1.11276e-05
1.15381e-05
3.70839e-05
3.44772e-05
2.71381e-05
2.92049e-05
2.55061e-05
2.9281e-05
2.55829e-05
8.1796e-05
8.25528e-05
4.36413e-07
1.02249e-06
-1.59835e-08
2.25244e-07
4.28813e-07
7.12479e-07
8.25881e-05
8.25914e-05
8.20604e-05
8.25927e-05
8.24315e-05
8.24769e-05
8.17066e-05
8.25875e-05
8.2144e-05
8.2596e-05
8.25956e-05
8.25287e-05
8.21765e-05
8.25117e-05
8.37707e-05
8.28392e-05
8.23985e-05
8.23861e-05
8.25034e-05
8.25858e-05
8.25891e-05
8.25996e-05
2.24975e-06
2.4357e-06
8.25879e-05
6.97677e-05
8.25824e-05
8.25695e-05
6.74653e-05
8.25834e-05
8.25607e-05
1.94421e-06
2.16689e-06
8.16299e-05
8.25891e-05
8.20038e-05
8.25863e-05
8.19321e-05
8.27366e-05
8.23483e-05
8.25907e-05
8.2328e-05
8.21927e-05
8.25273e-05
8.2591e-05
8.26212e-05
8.25301e-05
2.7185e-06
8.2473e-05
8.22876e-05
8.25876e-05
8.24706e-05
8.24754e-05
8.22944e-05
8.20805e-05
8.2572e-05
8.26157e-05
8.25917e-05
8.25745e-05
8.2585e-05
8.26019e-05
8.23752e-05
8.25873e-05
8.25759e-05
8.23173e-05
8.20264e-05
8.25904e-05
8.23329e-05
2.65783e-06
2.46749e-06
2.39847e-06
8.25638e-05
8.25635e-05
6.23226e-05
8.26467e-05
8.24408e-05
8.01095e-05
8.25239e-05
8.23181e-05
8.24447e-05
8.25947e-05
8.26095e-05
8.25789e-05
5.89383e-05
8.25979e-05
8.22723e-05
8.28262e-05
8.08452e-05
8.25896e-05
8.17197e-05
8.26e-05
8.16432e-05
8.22423e-05
8.25846e-05
8.23622e-05
8.59384e-05
8.25934e-05
8.16059e-05
8.21888e-05
8.2395e-05
7.95725e-05
8.25602e-05
5.75938e-05
8.25133e-05
8.2592e-05
8.25021e-05
8.19756e-05
8.34121e-05
8.23538e-05
8.25934e-05
8.27244e-05
8.24994e-05
8.27235e-05
8.26021e-05
8.04815e-05
8.25532e-05
6.15942e-05
8.25955e-05
8.2582e-05
8.23756e-05
8.2591e-05
8.24217e-05
8.25509e-05
6.97735e-05
8.1963e-05
5.26183e-05
8.22937e-05
6.77022e-05
8.12932e-05
7.78862e-05
8.25469e-05
8.25793e-05
8.25438e-05
8.25059e-05
8.19033e-05
8.24946e-05
1.54336e-06
1.63923e-06
1.8596e-06
8.24355e-05
8.25957e-05
8.25854e-05
8.30586e-05
8.25586e-05
6.0296e-05
8.25375e-05
8.25818e-05
8.25186e-05
8.19712e-05
7.61671e-05
6.40856e-05
8.26101e-05
8.20991e-05
7.53099e-05
8.23712e-05
8.26294e-05
8.24004e-05
8.25481e-05
8.2595e-05
8.25861e-05
8.19211e-05
8.24389e-05
8.25842e-05
8.25411e-05
8.25812e-05
8.26779e-05
8.25582e-05
8.25855e-05
8.24175e-05
8.24171e-05
6.09257e-05
8.25803e-05
8.23731e-05
8.25295e-05
8.25371e-05
8.16005e-05
8.24744e-05
8.25966e-05
8.17801e-05
8.23116e-05
8.2591e-05
8.25509e-05
8.24414e-05
8.2557e-05
8.20705e-05
8.26902e-05
8.26455e-05
8.24227e-05
8.2536e-05
8.20259e-05
8.25456e-05
1.6384e-06
6.93404e-05
8.31856e-05
8.25806e-05
8.24273e-05
8.23235e-05
8.44005e-05
8.24159e-05
8.25059e-05
8.26104e-05
1.38616e-06
1.17938e-06
8.18221e-05
8.25727e-05
8.25729e-05
8.24159e-05
8.25283e-05
7.4148e-05
8.25795e-05
8.25941e-05
2.29258e-06
8.24821e-05
8.23183e-05
2.06869e-06
1.926e-06
8.26112e-05
8.08498e-05
8.15644e-05
8.25941e-05
6.52445e-05
7.76804e-05
2.38751e-07
8.94464e-08
4.02218e-07
8.06656e-05
8.25952e-05
8.25377e-05
7.16581e-05
7.75192e-05
6.99546e-05
7.11899e-05
7.58507e-05
8.22247e-05
8.25608e-05
5.5095e-05
8.18787e-05
8.24511e-05
8.37991e-05
8.25866e-05
7.32438e-05
8.12178e-05
6.46061e-05
8.15721e-05
8.24423e-05
1.74471e-06
1.8465e-06
8.23548e-05
8.13595e-05
8.17917e-05
5.56246e-05
5.45581e-05
8.2568e-05
2.01527e-06
7.74015e-05
7.30075e-05
8.25612e-05
8.25586e-05
8.09975e-05
8.24595e-05
7.27029e-05
8.22825e-05
7.78892e-05
5.84918e-05
5.86733e-05
1.06619e-06
1.0307e-06
1.15651e-06
8.21295e-05
8.22753e-05
6.62736e-05
7.18475e-05
6.95463e-05
6.95416e-05
4.38276e-05
4.30589e-05
8.12064e-05
1.06523e-07
6.337e-08
2.97331e-08
-9.30628e-07
-9.59176e-07
-1.02744e-06
7.58325e-05
2.78234e-08
-9.23262e-08
8.2027e-05
-2.48134e-07
-1.19082e-06
4.87875e-07
-1.22363e-06
4.56925e-07
-1.3001e-06
4.41086e-07
)
;

boundaryField
{
    back
    {
        type            empty;
    }
    front
    {
        type            empty;
    }
    ingreso
    {
        type            zeroGradient;
    }
    salida
    {
        type            fixedValue;
        value           uniform 0;
    }
    defaultFaces
    {
        type            zeroGradient;
    }
}


// ************************************************************************* //
