/*--------------------------------*- C++ -*----------------------------------*\
  =========                 |
  \\      /  F ield         | OpenFOAM: The Open Source CFD Toolbox
   \\    /   O peration     | Website:  https://openfoam.org
    \\  /    A nd           | Version:  8
     \\/     M anipulation  |
\*---------------------------------------------------------------------------*/
FoamFile
{
    version     2.0;
    format      ascii;
    class       volScalarField;
    location    "7.2";
    object      p;
}
// * * * * * * * * * * * * * * * * * * * * * * * * * * * * * * * * * * * * * //

dimensions      [0 2 -2 0 0 0 0];

internalField   nonuniform List<scalar> 
17372
(
3.63677e-06
7.5117e-06
2.0896e-06
5.05072e-06
7.54015e-06
7.51404e-06
1.45943e-06
7.26445e-06
1.12228e-06
7.18972e-06
3.4286e-06
7.52759e-06
7.18657e-06
7.50025e-06
1.31627e-06
4.83005e-06
7.52995e-06
7.49848e-06
7.50732e-06
7.18118e-06
1.27225e-06
5.18326e-07
3.78652e-06
7.19201e-06
7.51554e-06
1.22668e-06
4.05527e-06
2.16743e-06
7.84521e-06
3.94678e-06
1.22637e-06
7.54563e-06
3.83935e-06
1.18213e-06
7.01356e-06
4.89732e-06
1.1345e-06
7.51639e-06
1.34842e-06
6.56753e-06
4.16365e-06
7.26882e-07
2.13923e-06
7.23139e-06
5.70028e-06
3.73424e-06
7.53576e-06
4.33907e-06
1.09086e-06
4.73834e-06
7.5167e-06
1.36105e-06
2.38531e-06
2.03487e-06
7.50271e-06
7.532e-06
1.04099e-06
2.20433e-07
1.33028e-06
7.29195e-06
4.77344e-06
7.29309e-06
3.89279e-06
5.2223e-06
2.23518e-06
7.28136e-06
1.38006e-06
2.54232e-07
1.29623e-07
7.50953e-06
7.34129e-06
3.25376e-06
1.62987e-06
4.86438e-06
6.68353e-06
5.69923e-06
1.75088e-06
5.69592e-06
5.96803e-06
6.16596e-06
7.53003e-06
1.53807e-06
1.49124e-06
7.54035e-06
7.52584e-06
5.62663e-06
4.7885e-06
5.1868e-06
9.96592e-07
7.38989e-06
4.87762e-07
7.67251e-07
7.32636e-06
7.50778e-06
7.31296e-06
4.27193e-06
7.49945e-06
7.53846e-06
7.5054e-06
7.23935e-06
7.37145e-06
3.92773e-06
7.51302e-06
7.29862e-06
1.43491e-06
9.04748e-07
4.25266e-06
6.84871e-06
7.53869e-06
4.03674e-06
2.07283e-07
7.46175e-06
4.14551e-06
4.6348e-06
1.07036e-06
5.3837e-07
4.25417e-06
8.60418e-07
5.70531e-07
4.36311e-06
1.17392e-06
4.47219e-06
1.27828e-06
9.88739e-07
7.50566e-06
1.38251e-06
2.43859e-06
7.30519e-06
7.53117e-06
4.58083e-06
1.48726e-06
2.54297e-06
4.00096e-06
4.68705e-06
2.33359e-06
7.30799e-06
3.48503e-06
2.22797e-06
6.27482e-06
7.53639e-06
7.25731e-06
2.12189e-06
1.96307e-06
1.59219e-06
7.34875e-06
1.85594e-06
1.75031e-06
7.51086e-06
7.22878e-06
5.00911e-06
5.966e-07
5.03673e-06
2.83652e-07
1.43084e-06
7.46657e-06
1.6034e-06
5.36188e-06
7.53877e-06
7.30868e-06
3.81984e-06
1.53964e-06
7.53703e-06
1.90374e-06
7.49536e-06
4.38039e-06
7.27362e-06
4.30982e-06
7.45113e-06
5.35086e-07
4.63405e-06
1.4668e-07
7.30221e-07
5.3337e-06
7.45282e-06
2.64762e-06
1.93321e-06
1.80844e-06
7.17047e-06
7.28167e-06
7.53365e-06
7.09256e-06
3.57946e-06
7.40261e-06
5.54206e-07
2.2284e-06
1.93274e-06
5.71092e-07
7.5462e-06
1.41817e-07
7.54555e-06
3.87491e-07
5.89501e-06
1.07623e-06
7.37536e-06
4.52628e-06
7.54959e-06
4.11178e-06
8.53627e-07
7.49439e-06
6.738e-06
7.55039e-06
7.26063e-06
7.52869e-06
2.40757e-06
2.81878e-07
7.53973e-06
3.62468e-06
7.30959e-06
5.57997e-06
1.69639e-06
4.04543e-06
4.10944e-06
3.78265e-06
3.94477e-06
7.54261e-06
8.10888e-07
3.78297e-06
6.66828e-06
7.38144e-06
3.55822e-07
2.28229e-06
7.27264e-06
7.54831e-06
7.43496e-06
1.6448e-06
7.52972e-06
4.73192e-06
7.01305e-06
7.2852e-06
3.71277e-06
7.51911e-06
3.67288e-06
7.35052e-06
5.97381e-06
5.94644e-06
7.61521e-06
7.2919e-06
7.76676e-07
1.45746e-07
2.4534e-06
2.50465e-06
4.9116e-06
7.53932e-06
7.48491e-06
7.17711e-06
4.48878e-06
7.49985e-06
2.33332e-06
3.39347e-07
7.53805e-06
7.53302e-06
2.50734e-06
1.29415e-07
7.23672e-07
7.53822e-06
3.85337e-06
2.80749e-06
7.53493e-06
1.87472e-06
7.48383e-06
4.8096e-07
6.69149e-07
7.50028e-06
7.52995e-06
7.53177e-06
7.53107e-06
4.60778e-06
7.47118e-06
6.62712e-07
7.55179e-06
6.45244e-06
4.54299e-06
7.31754e-06
7.27261e-06
7.49995e-06
5.0543e-06
4.41751e-06
7.41833e-06
7.51734e-06
7.28224e-06
7.50362e-06
7.54674e-06
5.88982e-06
7.55213e-06
4.21774e-06
6.08916e-06
4.50587e-06
1.52453e-06
9.83751e-07
7.36454e-06
3.52608e-06
7.14152e-06
3.60519e-06
3.57628e-06
7.31979e-06
1.68987e-06
5.55795e-06
7.43367e-06
6.05638e-06
5.45687e-07
4.18443e-07
7.55236e-06
1.01487e-06
7.551e-06
7.53264e-06
7.21159e-06
6.55825e-06
3.57983e-06
1.18176e-06
7.47724e-06
6.1063e-06
7.473e-06
3.84009e-06
7.55223e-06
7.26051e-06
7.18024e-06
4.65077e-06
7.44635e-06
7.51885e-06
8.17698e-07
6.34275e-06
7.30299e-06
1.80286e-06
7.40022e-06
6.7263e-06
7.30473e-06
7.33047e-06
7.55229e-06
7.4424e-06
5.66798e-06
2.06795e-06
6.95637e-06
7.53548e-06
1.49057e-06
2.96133e-06
1.17e-06
7.55186e-06
1.73114e-06
1.8216e-06
7.46573e-06
1.98607e-06
7.44147e-06
7.08262e-06
3.7406e-06
5.57265e-07
2.03695e-06
7.54652e-06
5.26852e-07
7.68392e-07
6.2918e-06
7.55136e-06
7.20026e-06
7.54755e-06
7.58514e-07
1.71308e-06
7.53912e-06
7.17281e-06
4.80003e-06
7.55079e-06
1.28043e-06
7.47031e-06
7.5498e-06
1.87827e-06
1.60525e-06
1.39204e-06
7.54926e-06
7.53016e-06
7.24258e-06
1.49748e-06
7.44498e-06
6.83422e-06
7.53235e-06
7.53586e-06
7.41481e-06
6.9116e-06
7.5484e-06
5.78453e-07
6.26051e-06
7.33121e-06
7.53272e-06
7.54918e-06
3.49481e-06
7.20156e-06
4.30848e-06
7.53996e-06
7.3181e-06
4.66598e-06
3.07034e-06
7.30011e-06
7.25374e-06
7.31874e-06
7.54274e-06
4.32609e-06
6.31542e-06
7.54091e-06
3.04924e-07
7.19523e-06
7.52183e-06
7.53267e-06
7.49888e-06
3.06712e-06
7.34966e-06
7.3639e-06
4.81012e-06
1.7993e-06
1.74565e-06
7.31858e-06
1.69341e-07
7.52524e-06
6.03252e-06
7.54036e-06
6.93512e-06
1.87694e-07
2.17426e-06
1.9091e-06
7.53122e-06
4.70444e-06
7.54468e-06
6.24851e-06
5.67864e-06
7.37498e-06
7.54509e-06
1.974e-06
7.38952e-06
1.76778e-06
6.32448e-06
7.3857e-06
8.0932e-07
6.90495e-06
7.14078e-06
7.26404e-06
6.21997e-06
2.82422e-06
4.7402e-06
1.09759e-06
6.43821e-06
7.31201e-06
2.99357e-06
7.62418e-06
7.52713e-06
7.27186e-06
7.54641e-06
7.07721e-06
7.47307e-06
7.53183e-06
7.28009e-06
7.54184e-06
1.8197e-07
2.82925e-06
7.3285e-06
7.52576e-06
7.53044e-06
1.50921e-06
1.58157e-06
8.74827e-07
7.53551e-06
7.55195e-06
7.2712e-06
6.96774e-06
7.14469e-06
7.31872e-06
4.69872e-06
7.31322e-06
3.17695e-06
1.99373e-07
3.13584e-06
7.44036e-06
5.55031e-06
7.49315e-06
4.21735e-06
1.40836e-06
6.23057e-06
7.52177e-06
7.46057e-06
7.27662e-06
7.45377e-06
4.59403e-07
7.54222e-06
1.5009e-06
7.55228e-06
4.68768e-06
5.83955e-06
7.21509e-06
1.12295e-06
7.3915e-06
7.3758e-06
9.47299e-07
7.54412e-06
7.53189e-06
5.69359e-07
4.9791e-06
7.53341e-08
7.21869e-07
2.01561e-06
4.23993e-07
7.54608e-06
4.19976e-06
7.54055e-06
7.43328e-06
7.30993e-06
4.43462e-06
6.71942e-07
7.54472e-06
7.47989e-06
7.55236e-06
6.81088e-07
7.54672e-06
7.43871e-06
6.76089e-07
7.38261e-06
1.75997e-06
4.44652e-06
3.33057e-06
7.28873e-06
4.85079e-06
5.70024e-07
7.36044e-06
4.69188e-06
5.80808e-06
4.51326e-06
7.44726e-06
7.30978e-06
2.06518e-06
7.55213e-06
7.46637e-06
7.54296e-06
3.28128e-06
4.9343e-06
7.44756e-06
7.25369e-06
4.61904e-06
1.32848e-07
7.49834e-06
5.8516e-06
4.73515e-06
2.4542e-06
4.31505e-06
7.55212e-06
3.89245e-06
7.33118e-06
6.99936e-07
4.72511e-06
7.48738e-06
7.23498e-06
7.15141e-06
7.49913e-06
7.42643e-06
7.48114e-06
7.38888e-06
4.83147e-06
5.66819e-06
6.85537e-06
7.54266e-06
4.77161e-07
4.86279e-06
7.50584e-06
7.53955e-06
7.49357e-06
7.55163e-06
4.93871e-06
4.76844e-06
2.12354e-06
3.7514e-06
2.92586e-06
4.22676e-07
7.30176e-06
1.63511e-06
7.52963e-06
5.04623e-06
6.11409e-07
9.81907e-07
5.98854e-06
7.34559e-06
7.54819e-06
5.15186e-06
6.0205e-06
7.55106e-06
4.14302e-06
1.72136e-06
7.50354e-06
5.31129e-06
1.52792e-06
3.24196e-06
6.849e-06
5.82968e-06
6.58728e-06
7.03651e-06
1.53211e-06
7.25874e-06
5.29715e-06
6.75058e-06
7.52582e-06
7.6279e-06
7.05852e-06
7.45681e-06
3.38458e-06
7.51868e-06
7.55023e-06
7.82736e-07
5.77815e-07
4.87414e-06
3.21423e-06
7.31967e-06
4.95037e-06
6.92986e-06
7.69555e-06
7.52051e-06
7.53151e-06
5.20601e-06
8.93416e-07
5.4541e-07
7.49737e-06
7.04804e-06
7.54954e-06
7.45536e-06
7.43356e-06
4.46474e-06
1.47359e-06
4.57638e-06
6.80166e-07
4.09118e-06
5.76197e-06
2.21745e-06
4.74336e-06
4.42285e-06
4.15314e-06
7.39515e-06
1.10199e-06
7.47634e-06
7.26889e-06
7.49613e-06
7.27818e-06
2.97894e-07
7.51421e-06
7.7969e-07
3.18544e-06
7.32468e-06
7.3118e-07
7.17191e-06
2.17471e-06
7.31928e-06
7.27659e-06
7.43368e-06
8.86861e-07
7.53664e-06
7.29299e-06
1.95667e-06
5.70971e-06
1.45325e-07
7.49241e-06
6.58672e-06
7.67808e-06
7.24066e-06
7.94803e-07
5.65843e-06
5.81434e-06
5.53075e-06
7.27663e-06
7.52008e-06
5.90455e-06
7.51606e-06
6.95721e-06
7.45691e-06
5.86842e-06
7.5515e-06
7.16935e-06
3.48814e-06
1.49774e-07
2.75154e-06
2.32991e-06
3.99515e-06
1.40476e-06
7.38499e-06
6.58534e-06
7.47613e-06
5.6785e-06
7.51451e-06
9.51573e-07
7.17047e-06
4.5622e-06
5.84886e-07
1.3257e-06
7.51744e-06
5.77885e-06
2.12211e-06
7.44453e-06
7.5017e-06
4.39072e-06
1.5401e-07
4.18349e-06
5.85298e-06
4.59701e-06
5.60698e-06
7.53378e-06
7.41802e-06
6.0868e-08
7.36554e-06
7.49096e-06
6.30422e-07
7.51984e-06
1.65893e-06
7.70176e-08
7.51182e-06
7.49171e-06
7.95055e-08
3.53651e-06
7.51612e-06
6.89315e-06
1.26313e-06
3.09832e-06
4.67272e-06
3.12738e-06
5.55567e-06
7.53365e-06
3.996e-06
5.05375e-06
2.58296e-07
6.40508e-06
8.89893e-07
7.5086e-06
1.90379e-06
4.42642e-06
7.46993e-06
6.99411e-06
3.8131e-06
1.08942e-06
7.54681e-06
7.51411e-06
6.75199e-06
6.78763e-06
7.32633e-06
5.04122e-06
4.78079e-06
2.12447e-06
7.50472e-06
7.43922e-06
6.02509e-07
4.75861e-06
7.54756e-06
3.59095e-06
5.73615e-06
7.30709e-06
7.47688e-06
7.50164e-06
5.58327e-06
7.54596e-06
7.53661e-06
7.4353e-06
7.49396e-06
2.34208e-06
2.28087e-06
7.54693e-06
5.43928e-06
7.38121e-06
7.18324e-06
7.49805e-06
5.2738e-06
5.54859e-06
7.53305e-06
7.35363e-06
4.56631e-06
4.8865e-06
7.41351e-06
5.83417e-06
7.41743e-06
6.73454e-07
2.91623e-06
4.03107e-07
1.62967e-06
5.76775e-06
7.16372e-06
7.49151e-06
4.27714e-06
7.24349e-06
1.82708e-06
7.3961e-06
3.98234e-06
7.43997e-06
6.32707e-07
1.33683e-06
7.54682e-06
4.55988e-06
5.50943e-06
4.46571e-06
7.38372e-06
5.97261e-06
7.53103e-06
1.52719e-06
7.48812e-06
7.57969e-07
4.4061e-06
2.6372e-06
7.36333e-06
1.84779e-06
7.46214e-06
7.32338e-06
4.93348e-07
7.40972e-06
1.82652e-06
7.4032e-06
7.47979e-06
6.83312e-06
7.62185e-07
7.47188e-06
7.30571e-06
7.21258e-06
6.71427e-06
7.02763e-06
6.5386e-06
3.45959e-06
1.72655e-06
2.98716e-06
7.09006e-06
7.31519e-06
7.52085e-06
4.8612e-07
5.03616e-06
2.98108e-06
5.47869e-06
7.32152e-06
7.29605e-06
7.54175e-06
3.32551e-06
1.36508e-06
7.32681e-06
7.44772e-06
6.57185e-07
5.15839e-06
2.14944e-06
4.46151e-07
6.90693e-06
7.39422e-06
7.49593e-06
6.92689e-06
6.05364e-06
3.30833e-06
7.28665e-06
7.38684e-06
7.03129e-06
7.51926e-06
7.38084e-06
9.48548e-07
1.64326e-06
5.13887e-06
4.11442e-06
7.51365e-06
9.97442e-07
1.6959e-06
2.07772e-06
6.39013e-06
3.37977e-06
7.53477e-06
7.30472e-06
7.09372e-06
7.49454e-06
7.52937e-06
2.69146e-06
1.5052e-07
7.53207e-06
7.08574e-06
6.06518e-06
3.63421e-07
7.33076e-06
6.18882e-06
1.09829e-06
7.53474e-06
2.16748e-06
7.31802e-06
7.4916e-06
7.29024e-06
5.2439e-06
7.44131e-06
4.5903e-06
2.38607e-06
1.16143e-06
6.11456e-06
5.40116e-06
5.21837e-07
7.50687e-06
1.1972e-06
6.73058e-06
4.25687e-06
7.51808e-06
4.81042e-06
5.34937e-06
7.54145e-06
7.54168e-06
1.57967e-06
4.64545e-06
7.53051e-06
7.50507e-06
6.40395e-06
7.30936e-06
7.23116e-06
7.51081e-06
1.05044e-06
7.5309e-06
6.98126e-07
7.0548e-06
4.0946e-06
7.29629e-06
7.51356e-06
3.62777e-06
7.28818e-06
5.72252e-06
8.23463e-07
4.90097e-06
4.67068e-06
3.26947e-08
7.20898e-06
5.2452e-06
5.3494e-06
2.91175e-08
1.41787e-07
7.13637e-06
2.28194e-06
4.45326e-06
7.28687e-06
4.75751e-06
7.51803e-06
4.25209e-06
7.36881e-06
5.90771e-06
7.548e-06
5.5672e-06
7.54614e-06
3.98321e-06
5.00232e-06
5.88618e-06
7.33446e-06
4.96553e-06
5.40388e-06
7.10262e-06
6.89036e-06
7.44769e-06
7.54106e-06
7.29232e-06
4.67225e-06
1.38236e-06
7.50953e-06
3.09177e-06
7.51677e-06
2.93575e-06
5.30283e-06
5.10631e-06
7.18917e-06
2.41809e-06
7.5315e-06
5.14045e-06
5.26331e-06
7.54599e-06
7.16319e-06
7.41832e-06
7.13047e-06
5.21101e-06
7.53334e-06
7.54668e-06
3.87403e-06
7.51594e-06
5.39179e-06
1.73902e-06
6.38081e-08
9.42137e-08
2.6545e-07
7.1459e-06
3.02048e-08
4.32116e-08
4.35542e-06
7.4187e-06
2.53157e-06
5.45468e-06
7.50738e-06
7.54693e-06
7.54477e-06
4.69631e-06
7.51381e-06
6.87953e-06
7.54886e-06
7.53312e-06
5.03527e-06
7.41795e-06
7.48728e-06
2.82737e-06
7.51138e-06
7.51225e-06
7.27201e-06
1.16349e-06
6.09701e-08
4.69981e-07
6.53474e-06
2.38858e-06
1.90199e-06
3.22819e-06
2.1196e-06
7.30332e-06
1.40195e-07
7.51531e-06
5.33642e-06
5.90602e-06
4.85703e-06
7.47958e-06
2.42178e-06
7.44759e-06
7.48501e-06
4.92984e-06
1.79326e-06
7.36243e-06
7.53022e-06
7.51306e-06
7.38773e-06
5.91844e-06
5.92025e-06
7.39319e-06
7.08018e-07
7.3194e-06
4.17677e-06
2.88164e-06
7.39489e-06
5.31645e-06
3.01798e-06
5.29742e-06
4.80986e-06
7.38977e-06
4.38734e-06
5.55928e-06
7.19937e-06
7.2182e-06
3.38369e-06
1.10524e-06
1.30742e-07
7.22109e-06
3.95065e-06
6.75488e-07
7.53298e-06
6.95803e-06
7.43458e-06
6.64048e-06
4.01182e-07
4.82398e-06
7.26744e-06
7.46972e-06
7.42447e-06
7.45067e-06
1.76769e-06
7.53654e-06
2.49036e-06
7.36749e-06
7.5146e-06
6.67363e-06
7.42877e-06
3.12616e-06
7.53899e-06
7.24e-06
5.63939e-07
1.68445e-06
2.05846e-06
1.55156e-06
7.47151e-06
7.52641e-06
7.22263e-06
1.41886e-06
7.21003e-06
7.53776e-06
7.43234e-06
7.43917e-06
6.34644e-07
4.71737e-06
5.45279e-06
4.74444e-06
7.48128e-06
5.42275e-06
1.26521e-06
1.25603e-06
3.23662e-06
7.22996e-06
1.72387e-06
7.48703e-06
7.32656e-06
1.99236e-06
7.48316e-06
5.98581e-06
7.50092e-06
6.71484e-06
6.51209e-06
7.39581e-06
7.46771e-06
7.53272e-06
7.37959e-06
3.21464e-06
7.53085e-06
5.66335e-06
5.45821e-06
6.44168e-07
7.51277e-06
6.18818e-06
1.30514e-06
3.62628e-07
2.94358e-07
7.25383e-06
7.52372e-06
7.23995e-06
7.79088e-06
1.0619e-06
4.31093e-07
4.87572e-06
4.17104e-07
4.53412e-06
1.10855e-06
7.24668e-06
6.9603e-06
6.98411e-06
7.49603e-06
4.46629e-07
3.38612e-07
4.50165e-06
4.63237e-06
6.33568e-06
7.51886e-06
7.17476e-06
5.53301e-06
7.24546e-06
8.8052e-07
1.00455e-06
7.28944e-06
7.51794e-06
5.12495e-06
7.20828e-06
4.70283e-07
7.31844e-06
5.53048e-06
7.49269e-06
7.51591e-06
7.45963e-06
7.51203e-06
6.4065e-07
6.98317e-08
7.51555e-06
7.19804e-06
5.54457e-07
7.4192e-06
2.01277e-06
7.42891e-06
3.51301e-07
7.18415e-06
7.5155e-06
5.36938e-06
7.53438e-06
7.55284e-06
7.25565e-06
1.37175e-06
1.59691e-06
5.03951e-07
6.6478e-06
4.1946e-06
7.49279e-06
6.45856e-06
7.2637e-06
6.5017e-06
7.58853e-06
1.48155e-06
7.53729e-06
7.49028e-06
3.63036e-07
7.53237e-06
7.54828e-06
4.91866e-06
4.52134e-06
7.53128e-06
5.87326e-07
5.76757e-06
9.62749e-07
6.88653e-06
7.22878e-06
4.77836e-06
7.23108e-06
7.54985e-06
5.19293e-06
7.48891e-06
3.76738e-06
1.52115e-06
7.52681e-06
4.64437e-06
5.28381e-06
1.0515e-07
9.09285e-08
6.31983e-06
7.40658e-06
3.76676e-06
2.49286e-06
7.46923e-06
7.47245e-06
7.55049e-06
7.49299e-06
3.54452e-07
7.44632e-06
7.49135e-06
3.93718e-06
7.50974e-06
7.5494e-06
7.03898e-06
4.41077e-06
7.17373e-06
6.73033e-07
5.69638e-06
7.53565e-06
7.5513e-06
4.24541e-06
7.41053e-06
3.12678e-07
1.68063e-06
1.62962e-06
6.09287e-06
6.0738e-06
7.59028e-06
4.01488e-06
7.31218e-06
2.5948e-06
7.54172e-06
7.36465e-06
4.30039e-06
7.48297e-06
7.55387e-06
7.55198e-06
1.21318e-06
3.79046e-06
7.54353e-06
6.97939e-06
6.32167e-06
4.54196e-06
6.86992e-06
6.50422e-06
4.36186e-07
7.52499e-06
7.45121e-06
8.66995e-07
5.1163e-07
1.47997e-06
3.92976e-07
4.19052e-06
1.41293e-06
7.55254e-06
7.39356e-06
4.91556e-06
7.53076e-06
7.16421e-06
7.50216e-06
5.69518e-06
7.35851e-06
5.95036e-07
7.42597e-06
3.66772e-07
7.53077e-06
7.53395e-06
1.07215e-06
4.04085e-07
7.07158e-06
5.46255e-06
7.49703e-06
7.55301e-06
7.46491e-06
1.12445e-07
7.5708e-08
1.21484e-06
5.90973e-06
7.45664e-06
7.51153e-06
7.01964e-06
7.42957e-06
7.53018e-06
4.27853e-06
5.15933e-07
7.48682e-06
5.52802e-06
7.55315e-06
4.37699e-07
2.52227e-06
7.39483e-06
6.1708e-06
7.06628e-06
7.41077e-06
6.2018e-06
7.31667e-06
7.42405e-06
1.57565e-06
7.16702e-06
7.26161e-06
7.32097e-06
9.3659e-07
7.55321e-06
7.24825e-06
7.23719e-06
7.54538e-06
5.97441e-06
4.17693e-07
5.86436e-06
5.95075e-06
7.50152e-06
5.84061e-06
7.4228e-06
7.41412e-06
7.541e-06
7.5315e-06
2.73884e-07
7.00168e-07
7.553e-06
3.50832e-07
4.61584e-07
7.1863e-06
7.16582e-06
6.8437e-06
6.02036e-06
7.47869e-06
7.12795e-06
2.04475e-06
7.50164e-06
7.50611e-06
7.51255e-06
5.47898e-06
7.52192e-06
7.55302e-06
7.5474e-06
7.68409e-06
7.25541e-06
4.7935e-08
7.10188e-06
1.41322e-06
6.2116e-06
7.52824e-06
1.14993e-06
7.43413e-06
7.20045e-06
7.52766e-07
7.42251e-06
7.34622e-06
1.6279e-06
7.54911e-06
3.33773e-08
1.64932e-06
6.35716e-06
7.36607e-06
7.46812e-06
7.55579e-06
5.86627e-06
7.02372e-06
7.57785e-07
5.02399e-06
4.08095e-06
7.52506e-06
7.54337e-06
7.24345e-06
7.17818e-06
7.42177e-06
5.46016e-06
5.29727e-06
7.54518e-06
4.42358e-06
7.5398e-06
4.7145e-07
6.73835e-06
7.36279e-06
6.19154e-06
1.05016e-06
4.76243e-07
3.75522e-06
6.03785e-06
7.15413e-06
5.08796e-06
6.5325e-07
7.28429e-06
8.63424e-07
4.56804e-07
1.14778e-06
7.51314e-06
7.18466e-06
7.5523e-06
7.50387e-06
7.5207e-06
6.40216e-06
1.90412e-06
7.51454e-06
5.64177e-06
5.34148e-07
7.19381e-06
5.62564e-06
3.93208e-06
7.53044e-06
6.4275e-06
6.29526e-06
7.4909e-06
7.35707e-06
7.38367e-06
7.47311e-06
7.5218e-06
5.85109e-06
7.39731e-06
7.44631e-06
5.4764e-06
7.50326e-06
6.00002e-06
7.55558e-06
7.31821e-06
5.20103e-06
6.76706e-06
7.16121e-06
6.882e-06
7.54929e-06
7.55477e-06
1.30974e-06
3.64187e-06
4.47055e-07
1.03073e-06
9.69975e-07
6.05109e-06
7.25357e-06
7.54342e-06
7.24767e-06
7.16186e-06
7.331e-06
7.1785e-06
6.97912e-06
7.52701e-06
1.14423e-06
7.1783e-06
6.16062e-06
5.58441e-06
1.24693e-06
7.53169e-06
6.82573e-06
6.69741e-06
7.54276e-06
7.46724e-06
7.51442e-06
2.19393e-06
6.42231e-06
7.41679e-06
7.53951e-06
7.54113e-06
7.53654e-06
7.16976e-06
9.54773e-08
7.18661e-06
4.73525e-06
1.7068e-06
2.69956e-06
7.53209e-06
5.79514e-06
7.50941e-06
7.51811e-06
7.17912e-06
7.33736e-06
1.31813e-06
7.02816e-06
6.08014e-06
2.4765e-07
5.96009e-06
7.39248e-06
9.93057e-07
7.26098e-06
7.08094e-06
1.66606e-07
4.02348e-06
1.42567e-06
1.07716e-06
6.71857e-06
7.15606e-06
1.27959e-06
1.48482e-06
5.80754e-06
7.29715e-06
7.08262e-06
7.5534e-06
7.09229e-06
7.51573e-06
4.8851e-06
1.53528e-06
4.00261e-07
1.32028e-06
7.21198e-06
6.86117e-06
7.03281e-06
7.44796e-06
6.51399e-06
7.55541e-06
3.65951e-06
7.14946e-06
7.1901e-06
7.40134e-06
7.42617e-06
7.51021e-06
7.52188e-06
5.2612e-07
7.48364e-06
7.0182e-06
6.49198e-06
1.32123e-06
7.53364e-06
7.18886e-06
7.39549e-06
7.39661e-06
3.71625e-07
6.78031e-06
3.69111e-06
7.46404e-06
3.91725e-06
2.71155e-06
4.50072e-07
6.31832e-06
1.18472e-06
2.8442e-06
1.76354e-06
7.51741e-06
7.48496e-06
3.06932e-07
7.38644e-06
7.17877e-06
7.47956e-06
7.5172e-06
5.88709e-07
1.39387e-06
7.34353e-06
6.64463e-06
4.47414e-07
7.49993e-06
7.43047e-06
6.36018e-07
7.15381e-06
7.10721e-06
6.44929e-06
7.26063e-06
7.53375e-06
6.79421e-06
4.20401e-06
7.06237e-06
7.29778e-06
5.00477e-07
7.43614e-06
6.5038e-06
7.06614e-06
5.97681e-06
2.14435e-06
7.36235e-06
7.43506e-06
1.87994e-06
3.30802e-06
7.53269e-06
7.10008e-06
5.11731e-06
7.06558e-06
7.28787e-06
7.54012e-06
7.34729e-06
7.54541e-06
7.51048e-06
7.51582e-06
7.38217e-06
1.29252e-06
6.29615e-06
5.57044e-06
6.39736e-06
6.88053e-06
7.50065e-06
7.51106e-06
7.53086e-06
1.87391e-06
6.03273e-06
6.04767e-06
7.53663e-06
6.6552e-06
7.55511e-06
5.02166e-06
6.25086e-07
6.16004e-06
7.51806e-06
7.49714e-06
5.00247e-07
7.53803e-06
7.49904e-06
1.35905e-06
4.93757e-07
5.98492e-06
7.52007e-06
5.73798e-06
3.02681e-07
6.99857e-06
5.12892e-06
6.45367e-06
5.96975e-06
7.57317e-06
7.52412e-06
7.48562e-06
7.54582e-06
7.26618e-06
7.51712e-06
5.43987e-06
7.04315e-06
2.8798e-06
7.54279e-06
7.51303e-06
7.5007e-06
7.53231e-06
5.25752e-06
7.24952e-06
7.21123e-06
7.47716e-06
7.27761e-06
7.37518e-06
7.21888e-06
1.46724e-06
6.8852e-06
7.54395e-06
7.06163e-06
7.48713e-06
7.30931e-06
7.28669e-06
7.53643e-06
6.5651e-06
6.15879e-06
7.3552e-06
3.73957e-06
7.55592e-06
4.29686e-06
7.44937e-06
7.52998e-06
7.27055e-06
7.31215e-06
7.51218e-06
5.91411e-06
6.3691e-06
1.38503e-06
3.92446e-07
5.02078e-07
7.4825e-06
7.1879e-06
7.19388e-06
7.30551e-06
7.43915e-06
7.22122e-06
7.15208e-06
7.1731e-06
7.19395e-06
7.40631e-06
2.77572e-06
6.08734e-06
4.38084e-07
7.44247e-06
7.5839e-06
7.09637e-06
4.21474e-07
7.26814e-06
7.25938e-06
7.38695e-06
6.72046e-06
7.25216e-06
7.06154e-06
6.44244e-06
7.23682e-06
7.53758e-06
7.4127e-06
7.12412e-06
4.71111e-06
6.49958e-06
7.25956e-06
7.53856e-06
7.28526e-06
7.52561e-06
7.54277e-06
7.54698e-06
5.97073e-06
6.88897e-06
7.50839e-06
6.74339e-06
7.50705e-06
7.51841e-06
5.76109e-06
5.43879e-07
7.19664e-06
7.16822e-06
7.13071e-06
2.01059e-06
7.26161e-06
7.53457e-06
4.77253e-06
7.05389e-06
5.89698e-06
7.39726e-06
7.25033e-06
5.9802e-06
7.2474e-06
7.18126e-06
7.27931e-06
7.50951e-06
7.09139e-06
6.5975e-06
5.11044e-06
7.27047e-06
6.40155e-06
5.7982e-07
7.1876e-06
7.51065e-06
4.98266e-06
7.20057e-06
4.91834e-07
7.48712e-06
7.53539e-06
7.38323e-06
7.28453e-06
1.44499e-06
7.20266e-06
7.52513e-06
7.34839e-06
6.3796e-06
7.51163e-06
7.21679e-06
6.11436e-06
4.82241e-06
7.33913e-06
7.50521e-06
7.16889e-06
7.189e-06
4.13574e-06
1.81938e-06
7.51257e-06
1.3064e-06
7.48814e-06
7.27814e-06
6.86136e-06
7.54217e-06
5.51185e-07
7.46377e-06
7.15324e-07
7.53536e-06
7.55548e-06
7.2958e-06
7.5349e-06
4.23505e-06
7.53206e-06
7.29641e-07
7.2446e-06
5.88144e-06
1.6768e-06
7.24134e-06
3.45372e-07
7.10569e-06
7.51804e-06
7.15235e-06
7.33035e-06
6.01014e-06
7.50581e-06
7.24308e-06
1.57557e-06
6.69644e-06
5.78787e-06
6.03764e-06
4.67973e-07
7.20875e-06
6.33115e-06
7.43608e-06
7.20409e-06
7.23927e-06
7.52127e-06
7.48434e-06
6.36315e-06
2.13969e-06
6.98889e-06
1.28328e-06
5.95492e-06
5.52794e-06
7.2257e-06
7.10715e-06
6.22644e-06
6.21363e-06
7.5247e-06
7.51418e-06
7.18784e-06
7.42403e-06
7.23804e-06
7.49523e-06
6.12389e-06
7.13209e-06
7.49389e-06
7.22117e-06
6.53108e-06
3.78573e-06
7.46622e-06
7.34405e-06
7.28672e-06
7.39537e-06
7.26758e-06
7.43781e-06
4.64587e-07
6.08993e-06
6.08608e-06
1.69431e-06
7.27377e-06
7.3613e-06
7.32677e-06
7.45656e-06
4.31339e-06
7.24131e-06
6.4346e-06
7.40106e-06
7.32196e-06
7.53301e-06
4.66994e-07
7.51347e-06
7.32206e-06
5.92938e-06
7.2829e-06
7.22347e-06
6.66855e-06
7.53351e-06
7.50323e-06
6.93486e-06
7.26791e-06
7.2468e-06
7.51859e-06
1.12615e-06
7.29243e-06
5.8322e-06
7.28611e-06
7.54216e-06
1.79515e-06
7.26576e-06
7.52091e-06
7.25969e-06
7.52207e-06
7.53254e-06
5.36429e-06
5.09004e-06
8.2138e-07
1.55294e-06
7.1093e-06
7.29847e-06
6.38853e-06
7.29092e-06
7.47042e-06
7.26957e-06
7.20466e-06
7.47042e-06
6.96158e-06
7.54179e-06
7.55551e-06
7.23584e-06
7.10125e-06
6.18631e-06
7.25679e-06
7.54125e-06
7.52996e-06
2.85696e-06
6.27582e-06
7.41278e-06
1.5215e-06
7.26186e-06
7.20136e-06
5.63336e-06
7.5425e-06
2.33553e-06
7.24694e-06
6.28557e-06
6.27643e-06
5.47715e-06
7.52879e-06
7.42679e-06
7.3127e-06
4.77135e-07
2.2649e-06
1.42533e-06
7.30558e-06
7.09567e-06
7.49151e-06
6.96915e-07
2.73114e-06
7.46867e-06
7.33408e-06
7.33496e-06
7.3496e-06
7.12081e-06
7.34306e-06
7.29787e-06
1.49411e-06
7.51017e-06
6.70478e-06
7.35e-06
7.34176e-06
7.41565e-06
7.53613e-06
1.1174e-06
7.28129e-06
7.50443e-06
7.52704e-06
7.5322e-06
6.09758e-06
7.22885e-06
7.35056e-06
5.79403e-07
7.53722e-06
7.40028e-06
6.20392e-07
6.11288e-06
7.09268e-06
7.37155e-06
7.3508e-06
7.31497e-06
7.04445e-06
7.25313e-06
7.38608e-06
7.36998e-06
7.34846e-06
6.59341e-06
6.79984e-06
7.415e-06
7.54259e-06
6.17127e-06
7.20688e-06
7.51962e-06
7.25598e-06
7.2243e-06
7.51919e-06
4.17881e-06
7.22146e-06
7.49182e-06
7.26847e-06
7.26814e-06
5.16263e-07
7.33638e-06
7.34122e-06
5.89888e-06
5.88731e-06
7.52798e-06
5.73105e-06
6.1083e-06
7.5188e-06
3.07445e-06
7.16519e-06
7.44408e-06
7.13691e-06
7.21747e-06
7.34924e-06
7.42421e-06
6.8086e-06
7.53065e-06
7.51515e-06
7.51974e-06
7.51773e-06
6.01133e-06
7.31517e-06
7.55528e-06
9.28173e-07
7.50302e-06
7.52504e-06
7.49137e-06
7.30576e-06
6.73358e-06
7.54297e-06
6.28127e-06
7.43177e-06
3.24152e-06
7.74273e-06
6.90891e-06
6.70103e-06
7.52101e-06
6.08634e-06
5.9899e-06
7.35905e-06
6.15489e-06
7.31484e-06
7.57947e-06
6.09897e-07
7.53542e-06
7.39863e-06
5.80808e-06
7.32033e-06
7.27962e-06
7.3202e-06
6.84454e-06
7.17527e-06
7.3438e-06
5.90113e-06
7.02085e-06
7.34168e-06
7.32273e-06
7.50278e-06
7.33235e-06
7.15678e-06
7.37493e-06
7.38186e-06
7.51524e-06
6.80146e-06
7.32402e-06
7.26479e-06
7.4877e-06
7.04288e-06
6.16261e-06
5.94013e-06
7.39049e-06
7.27971e-06
7.54829e-06
6.87506e-06
5.69767e-06
7.34977e-06
1.03552e-06
7.32184e-06
7.02441e-06
5.78233e-06
7.24023e-06
7.22946e-06
7.53745e-06
5.92401e-06
7.3471e-06
7.33017e-06
5.87075e-07
7.42614e-06
7.34252e-06
7.2785e-06
6.01886e-07
7.25831e-06
7.49137e-06
7.2419e-06
7.2887e-06
7.36123e-06
7.54357e-06
7.54227e-06
7.40947e-06
7.39239e-06
5.9683e-06
7.53267e-06
7.34605e-06
7.53181e-06
7.40185e-06
7.34135e-06
7.4108e-06
7.47653e-06
6.39393e-06
7.2754e-06
7.32181e-06
5.7639e-06
7.35738e-06
7.23656e-06
7.39241e-06
7.28655e-06
5.63062e-06
4.97851e-07
7.0529e-06
7.33658e-06
6.31715e-06
7.22913e-06
6.97987e-06
5.15862e-07
7.05249e-06
7.60684e-06
5.90945e-06
7.42594e-06
7.2461e-06
7.28417e-06
7.21528e-06
7.36336e-06
4.773e-06
7.34049e-06
7.45082e-06
7.49967e-06
7.51671e-06
7.33041e-06
7.53355e-06
6.07769e-06
7.26329e-06
7.00284e-06
7.43867e-06
7.4399e-06
6.15229e-06
7.14854e-06
7.32063e-06
7.25582e-06
7.29361e-06
7.51893e-06
7.39866e-06
6.7155e-06
5.08206e-07
7.44651e-06
7.52157e-06
7.43177e-06
7.40997e-06
7.3363e-06
7.53993e-06
7.42989e-06
7.3303e-06
6.24985e-06
7.49405e-06
7.21214e-06
7.25283e-06
7.24612e-06
7.13668e-06
7.53834e-06
7.4344e-06
7.51417e-06
7.34894e-06
8.56802e-07
7.51401e-06
7.23184e-06
7.51885e-06
7.2686e-06
7.22839e-06
7.35494e-06
7.47108e-06
6.91579e-06
6.79412e-06
7.51646e-06
7.24934e-06
4.71249e-06
5.9733e-06
7.52143e-06
1.68368e-06
7.42204e-06
7.5549e-06
7.54125e-06
7.30781e-06
7.51975e-06
7.19689e-06
6.14017e-06
7.0311e-06
7.29675e-06
7.40721e-06
7.52073e-06
7.24182e-06
7.5315e-06
7.44136e-06
6.76286e-06
3.64791e-06
7.47765e-06
7.20701e-06
7.23103e-06
7.52926e-06
7.38536e-06
7.22583e-06
7.52111e-06
6.93196e-06
7.40695e-06
7.41005e-06
7.37991e-06
7.28761e-06
7.52311e-06
7.54344e-06
7.5449e-06
7.23258e-06
7.30887e-06
7.52743e-06
7.51674e-06
7.51792e-06
7.20523e-06
7.28129e-06
5.8171e-06
6.55465e-07
1.0355e-06
7.52987e-06
6.05792e-06
7.4355e-06
7.41662e-06
7.22479e-06
2.23629e-06
7.25983e-06
7.36974e-06
7.44592e-06
7.46276e-06
7.52427e-06
7.33679e-06
7.41435e-06
7.55466e-06
7.51669e-06
7.24328e-06
5.23425e-06
7.51337e-06
7.25355e-06
7.36802e-06
7.52463e-06
6.30261e-06
7.33475e-06
7.35686e-06
7.52355e-06
7.5208e-06
6.27518e-06
7.25966e-06
7.46536e-06
7.26203e-06
7.30919e-06
5.55756e-06
7.4115e-06
5.93552e-06
7.42956e-06
7.4521e-06
7.5293e-06
7.5235e-06
7.34283e-06
6.90273e-06
7.40317e-06
5.714e-06
7.51651e-06
2.00433e-07
1.42943e-06
7.28345e-06
7.52161e-06
7.55437e-06
7.41482e-06
7.45273e-06
5.65087e-07
7.49071e-06
7.3837e-06
1.92053e-06
2.6249e-06
3.00512e-06
3.16847e-06
3.65566e-06
4.35984e-06
4.52198e-06
4.90516e-06
5.07014e-06
7.27249e-06
7.24165e-06
7.22952e-06
7.33424e-06
7.33085e-06
7.53162e-06
7.28148e-06
7.50432e-06
7.41728e-06
7.52873e-06
7.51614e-06
7.52083e-06
6.54308e-06
7.18967e-06
5.44957e-06
7.33769e-06
7.40194e-06
7.54473e-06
7.53012e-06
5.50339e-06
7.53152e-06
4.81857e-06
7.27679e-06
7.43536e-06
5.61182e-06
5.66644e-06
7.00131e-07
7.52781e-06
7.42036e-06
7.50985e-06
7.48658e-06
7.33607e-06
7.28116e-06
7.28427e-06
7.53172e-06
5.80064e-07
7.43093e-06
7.46525e-06
7.53363e-06
7.52865e-06
5.71561e-06
6.9396e-06
7.52297e-06
7.26987e-06
7.16781e-06
7.27096e-06
7.2765e-06
7.22343e-06
1.53912e-07
6.51435e-06
7.36058e-06
7.41655e-06
6.60643e-06
7.42823e-06
7.51467e-06
7.19174e-06
5.88404e-06
7.43021e-06
7.43601e-06
7.40746e-06
5.41645e-06
7.23846e-06
7.02579e-06
7.49344e-06
7.52388e-06
6.66616e-06
7.3136e-06
7.39485e-06
7.52376e-06
7.52027e-06
5.78277e-06
7.19571e-06
7.3242e-06
7.33272e-06
7.50188e-06
7.27048e-06
7.44779e-06
7.53665e-06
7.51341e-06
7.43329e-06
7.42395e-06
7.34462e-06
7.53968e-06
7.54619e-06
7.54391e-06
7.32585e-06
7.42651e-06
4.86137e-06
6.97001e-06
7.41242e-06
5.5825e-06
7.51957e-06
5.98494e-06
7.55437e-06
7.28292e-06
7.46523e-06
5.42912e-06
6.99897e-06
7.50167e-06
7.53888e-06
7.42906e-06
5.66581e-06
7.29318e-06
7.51367e-06
6.20232e-06
7.34486e-06
1.77786e-06
7.49825e-06
7.36639e-06
7.11678e-06
7.54412e-06
7.51923e-06
7.50352e-06
7.48386e-06
6.89529e-06
7.45064e-06
7.2747e-06
6.54645e-06
3.97702e-07
7.41265e-06
7.53188e-06
7.50033e-06
2.55314e-07
7.19625e-06
7.31737e-06
2.67155e-06
7.50423e-06
7.5271e-06
7.4439e-06
5.86783e-06
6.51249e-06
7.48611e-06
7.15492e-06
7.11115e-06
7.27671e-06
7.49773e-06
7.51528e-06
7.53153e-06
7.39819e-06
7.22115e-06
7.4928e-06
7.31677e-06
1.46699e-06
7.45556e-06
7.51673e-06
7.28463e-06
7.40555e-06
7.51829e-06
7.50577e-06
7.55294e-06
7.49919e-06
7.24554e-06
7.52273e-06
6.33542e-06
7.49825e-06
7.44917e-06
7.26883e-06
7.51177e-06
7.55405e-06
6.26104e-06
7.42149e-06
7.44951e-06
7.28825e-06
7.53408e-06
7.53064e-06
7.17485e-06
7.53315e-06
7.47059e-06
7.45177e-06
7.48502e-06
7.28534e-06
7.51474e-06
7.34224e-06
7.47958e-06
7.24254e-06
7.30687e-06
7.52036e-06
7.4647e-06
7.42274e-06
7.34179e-06
7.49931e-06
6.30009e-06
7.44826e-06
7.53176e-06
6.16593e-06
7.37761e-06
7.55235e-06
7.32608e-06
7.47575e-06
7.44812e-06
7.36182e-06
7.23882e-06
7.25418e-06
7.53633e-06
7.38995e-06
7.53808e-06
7.45407e-06
7.40601e-06
7.51414e-06
6.82329e-06
5.28899e-06
7.44957e-06
7.05822e-07
7.23465e-06
6.47713e-06
7.33129e-06
7.50949e-06
7.44963e-06
7.32614e-06
1.14317e-06
7.42084e-06
7.26006e-06
7.4158e-06
7.51591e-06
3.55093e-06
7.1729e-06
8.91087e-07
7.41728e-06
7.53863e-06
7.53291e-06
6.0993e-06
7.41154e-06
7.64795e-06
7.05439e-07
5.63243e-06
7.13339e-06
7.51975e-06
7.51826e-06
6.59344e-06
7.52354e-06
5.72143e-06
5.80725e-06
6.47252e-06
7.52209e-06
7.45813e-06
7.53285e-06
7.5183e-06
7.52974e-06
7.4822e-06
7.54104e-06
5.59941e-06
7.50152e-06
7.71203e-06
7.4907e-06
7.40845e-06
8.48863e-07
7.46504e-06
7.49981e-06
7.52063e-06
6.26705e-06
5.23551e-06
7.49025e-06