/*--------------------------------*- C++ -*----------------------------------*\
  =========                 |
  \\      /  F ield         | OpenFOAM: The Open Source CFD Toolbox
   \\    /   O peration     | Website:  https://openfoam.org
    \\  /    A nd           | Version:  8
     \\/     M anipulation  |
\*---------------------------------------------------------------------------*/
FoamFile
{
    version     2.0;
    format      ascii;
    class       surfaceScalarField;
    location    "7.2";
    object      phi;
}
// * * * * * * * * * * * * * * * * * * * * * * * * * * * * * * * * * * * * * //

dimensions      [0 3 -1 0 0 0 0];

internalField   nonuniform List<scalar> 
9048
(
7.01709e-09
-6.48549e-09
-3.30988e-09
2.77828e-09
-1.54516e-09
-1.37157e-09
1.73172e-09
1.18502e-09
8.667e-09
-2.53242e-09
-6.58352e-09
4.48941e-10
-2.3009e-09
5.18602e-09
1.19757e-09
-4.0827e-09
-4.66011e-09
-3.35849e-09
1.87619e-09
6.14242e-09
3.10808e-09
-2.20856e-09
6.31987e-09
-7.21939e-09
-2.54199e-09
1.94057e-09
1.96319e-09
-1.36177e-09
3.23628e-10
-2.78643e-10
-5.96889e-11
1.47044e-11
5.30217e-09
-3.86353e-09
3.35683e-09
-4.79547e-09
7.60398e-09
-3.61174e-09
-7.0776e-09
3.08535e-09
1.449e-09
-5.59391e-09
4.09561e-09
4.92913e-11
5.73695e-09
-4.94203e-09
-2.5537e-09
1.75877e-09
-5.77039e-09
2.10442e-09
5.47536e-09
-1.80939e-09
4.82955e-09
4.31633e-09
-2.65063e-09
-6.49524e-09
6.71131e-09
-6.14042e-09
-2.8532e-09
2.28231e-09
-6.9514e-09
5.29226e-09
2.14804e-09
-4.88908e-10
-8.55949e-09
6.53648e-09
2.59895e-09
-5.75934e-10
8.48941e-09
-6.63735e-09
-3.04578e-09
1.19371e-09
7.68609e-09
-6.81841e-09
-3.28618e-09
2.4185e-09
6.27952e-09
-5.57139e-09
-2.71636e-09
2.00824e-09
-6.22385e-09
5.72179e-09
2.36977e-09
-1.86771e-09
-5.54167e-09
5.16332e-09
2.19141e-09
-1.81306e-09
5.65365e-09
-5.08114e-09
-2.31228e-09
1.73978e-09
6.41865e-09
-5.98936e-09
-3.07794e-09
2.64865e-09
-5.94599e-09
5.62164e-09
2.47001e-09
-2.14565e-09
-7.30999e-09
7.21937e-09
3.24658e-09
-3.15597e-09
5.49254e-09
-5.26664e-09
-2.57747e-09
2.35157e-09
5.5758e-09
-5.35303e-09
-2.67801e-09
2.45524e-09
5.70306e-09
-5.47437e-09
-2.74215e-09
2.51345e-09
6.86592e-09
-5.43901e-09
-2.41464e-09
9.87729e-10
7.68188e-09
-6.05919e-09
-2.84598e-09
1.22329e-09
5.90281e-09
-5.53823e-09
-2.74808e-09
2.3835e-09
-5.62702e-09
5.29189e-09
2.38984e-09
-2.05471e-09
6.60018e-09
-6.07066e-09
-2.99718e-09
2.46766e-09
7.47523e-09
-7.10622e-09
-3.70405e-09
3.33504e-09
7.31411e-09
-5.78096e-09
-2.62079e-09
1.08764e-09
7.02474e-09
-5.5557e-09
-2.5173e-09
1.04827e-09
7.14876e-09
-5.65324e-09
-2.56046e-09
1.06493e-09
-6.34918e-09
6.13963e-09
2.02224e-09
-1.81268e-09
-5.38885e-09
2.38724e-09
5.15043e-09
-2.14882e-09
-4.13147e-09
3.66237e-09
-3.48028e-09
3.94938e-09
7.9242e-09
-8.13864e-09
2.84394e-09
-2.6295e-09
3.01045e-09
-3.42767e-09
5.40767e-09
-4.99045e-09
2.79697e-09
-3.22456e-09
4.96396e-09
-4.53637e-09
2.74014e-09
-3.17003e-09
4.88138e-09
-4.45148e-09
-3.89335e-09
-4.3517e-09
4.11358e-09
3.26134e-09
-3.81336e-09
5.72969e-09
-5.17766e-09
2.78316e-09
-3.20805e-09
4.85278e-09
-4.42789e-09
3.07212e-09
-3.48075e-09
5.41474e-09
-5.0061e-09
-3.3042e-09
2.79489e-09
5.46139e-09
-4.95208e-09
-1.65097e-09
1.56047e-09
-5.52941e-09
5.61992e-09
1.527e-09
-1.80838e-09
-5.32856e-09
5.60993e-09
-8.32354e-09
3.07839e-09
-2.07318e-09
7.31834e-09
3.43063e-09
-3.36927e-09
-4.5979e-09
4.53654e-09
-2.82104e-09
3.2849e-09
2.72224e-09
-3.1861e-09
3.69159e-09
4.02807e-09
-3.67199e-09
-4.04768e-09
5.15892e-09
-6.56436e-09
2.75203e-10
1.13024e-09
-3.43152e-10
3.28266e-10
4.71492e-13
1.44142e-11
-3.98401e-09
-4.53309e-09
4.0045e-09
4.5126e-09
4.00052e-09
-5.21819e-09
-5.8379e-09
7.05557e-09
4.90125e-09
3.4406e-09
-4.66839e-09
-3.67346e-09
4.04655e-09
3.89226e-09
-4.20593e-09
-3.73288e-09
3.14044e-09
-3.99238e-09
-4.62799e-09
5.47992e-09
4.76991e-09
4.65314e-09
-4.98627e-09
-4.43679e-09
-2.31839e-09
2.35362e-09
3.61727e-09
-3.6525e-09
-4.70329e-09
-4.74548e-09
3.76043e-09
5.68834e-09
5.67142e-09
2.45882e-09
-2.44162e-09
-5.68863e-09
4.91336e-09
4.94948e-09
-4.33745e-09
-5.52539e-09
3.52523e-09
-4.66064e-09
-5.12027e-09
6.25568e-09
-2.34026e-09
2.87118e-09
4.29863e-09
-2.20864e-09
2.28215e-09
2.49308e-09
-2.5666e-09
1.14372e-09
1.79118e-09
-1.60557e-09
-1.32933e-09
-1.00843e-09
6.16718e-09
2.79107e-09
-7.94982e-09
-4.18923e-09
-3.97585e-09
3.23104e-09
4.93405e-09
4.20184e-09
3.89715e-09
-4.3021e-09
-3.79688e-09
5.17427e-09
4.8504e-09
-5.31496e-09
-4.70971e-09
2.5543e-09
-1.1521e-09
7.38271e-10
-2.14048e-09
-4.98037e-09
4.27488e-09
4.36786e-09
4.65932e-09
-4.52508e-09
2.38224e-09
-2.51648e-09
4.18048e-09
-4.07981e-09
2.13749e-09
-2.23817e-09
3.7563e-09
6.11989e-09
-4.29067e-09
-5.58551e-09
2.12353e-09
6.00673e-09
-2.72604e-09
-5.40422e-09
6.78599e-09
-4.7432e-09
5.51302e-09
-7.55581e-09
-5.67987e-09
-3.88633e-09
4.65529e-09
4.91091e-09
4.166e-09
-4.62872e-09
-4.92279e-09
-3.84381e-09
4.80698e-09
3.95962e-09
7.57233e-09
-4.87649e-09
-4.18775e-09
1.49191e-09
-5.15021e-09
3.60997e-09
-4.55139e-09
6.09164e-09
-4.734e-09
-3.19777e-09
3.81894e-09
4.11283e-09
-4.92141e-09
-3.33035e-09
3.97909e-09
4.27267e-09
-4.81417e-09
-3.25486e-09
3.88739e-09
4.18164e-09
-4.64306e-09
-3.13441e-09
3.74306e-09
4.03441e-09
-1.29696e-11
-6.55432e-12
-4.57635e-09
-1.76098e-10
-2.82442e-10
5.03489e-09
3.47302e-09
-3.56088e-09
1.79805e-09
-1.71019e-09
4.01713e-09
1.90712e-09
-7.92255e-10
-5.13199e-09
-2.88708e-10
-7.27161e-09
6.65242e-09
9.07898e-10
-4.58305e-09
4.35388e-09
4.36205e-09
-4.13287e-09
-1.25364e-09
6.25203e-09
1.60531e-10
-4.57008e-09
4.92875e-09
4.15853e-09
-4.5172e-09
-5.46509e-09
3.8243e-09
-4.70895e-09
6.34974e-09
-4.46814e-09
3.19903e-09
-4.11481e-09
5.38392e-09
3.86725e-09
8.49529e-09
-6.31246e-10
-1.17313e-08
-7.00756e-09
4.85913e-09
-5.0539e-09
7.20233e-09
7.0357e-10
3.41229e-09
-1.56156e-09
-3.54723e-10
2.3246e-11
3.31782e-10
-3.05768e-13
-4.23019e-09
-4.36269e-09
3.92572e-09
4.66716e-09
-4.73831e-09
-1.52974e-09
1.8987e-09
4.36936e-09
-4.05216e-09
6.07045e-09
2.89507e-09
-2.76842e-09
4.03977e-09
-4.64062e-09
5.07994e-09
5.49001e-09
-5.26778e-09
3.88201e-10
-3.46595e-10
-6.17079e-12
-3.54344e-11
-2.80634e-09
2.37555e-09
8.30657e-10
-3.99864e-10
5.49237e-09
5.45972e-09
-4.4317e-09
-6.52039e-09
2.73931e-09
-3.21922e-09
-1.17084e-09
1.65075e-09
2.68876e-09
-2.44728e-09
4.63935e-09
-4.88083e-09
-2.98544e-09
3.18113e-09
3.95033e-09
-4.14601e-09
6.03364e-12
-3.68418e-10
7.66151e-12
-4.22144e-09
1.40562e-11
4.4884e-09
-2.8102e-10
5.99132e-09
-4.2274e-09
4.53136e-09
-6.29528e-09
-5.19714e-09
5.23079e-09
2.17948e-09
-2.21313e-09
5.64571e-09
-4.36763e-09
5.03319e-09
-6.31127e-09
-4.45898e-09
1.26973e-09
-3.89477e-10
3.57872e-09
-5.05631e-09
4.79846e-09
-5.10697e-09
5.36483e-09
-6.0767e-09
4.32428e-09
-5.23936e-09
6.99177e-09
6.47749e-09
-5.90999e-09
6.59489e-09
-7.16239e-09
-5.39283e-09
4.97459e-09
-5.34651e-09
5.76475e-09
-6.72297e-09
4.77638e-09
-5.15027e-09
7.09685e-09
5.60083e-09
-4.57271e-09
5.78786e-09
-6.81598e-09
5.13062e-09
-4.79419e-09
4.89519e-09
-5.23162e-09
-5.52642e-09
4.88364e-09
-5.32803e-09
5.9708e-09
5.20719e-09
-4.69645e-09
4.98669e-09
-5.49743e-09
5.94975e-09
-4.76342e-09
5.99053e-09
-7.17687e-09
5.00633e-09
-4.23731e-09
5.47809e-09
-6.24712e-09
4.89112e-09
-4.53055e-09
4.50597e-09
-4.86653e-09
1.57461e-09
-3.83274e-09
3.77353e-09
-1.5154e-09
6.09538e-09
-4.14425e-09
3.54131e-09
-5.49243e-09
5.46452e-09
5.44944e-09
-4.99265e-09
-5.92132e-09
-7.05824e-10
1.25595e-09
-3.28732e-09
2.7372e-09
5.60521e-09
5.43856e-09
-4.86754e-09
-6.17623e-09
-4.97861e-09
-5.02017e-09
4.04115e-09
5.95763e-09
-4.86115e-09
-4.92396e-09
4.03982e-09
5.74528e-09
-4.60827e-09
-3.41527e-09
4.56581e-09
3.45773e-09
4.31144e-09
3.57728e-09
-4.47166e-09
-3.41705e-09
5.1682e-09
4.8417e-09
-4.80342e-09
-5.20648e-09
5.04062e-09
4.7435e-09
-4.6689e-09
-5.11521e-09
5.32632e-09
5.20302e-09
-4.78992e-09
-5.73942e-09
5.55144e-09
5.40706e-09
-5.01188e-09
-5.94663e-09
5.42748e-09
5.285e-09
-4.90659e-09
-5.80589e-09
4.26044e-09
-4.67606e-09
-2.37622e-09
2.79184e-09
-5.9724e-09
4.5819e-09
-3.6576e-09
5.0481e-09
7.53612e-09
-5.56978e-10
-1.8104e-11
-6.96104e-09
-2.99832e-09
3.20852e-09
4.07127e-09
-4.28147e-09
5.73529e-09
-4.97443e-09
-9.78301e-10
2.17443e-10
3.8346e-09
1.23191e-09
-3.59718e-09
-1.46933e-09
6.62141e-09
-4.67915e-09
5.04591e-09
-6.98817e-09
-4.26508e-09
2.0858e-09
-8.71544e-10
3.05082e-09
5.72115e-09
-7.68946e-09
7.69355e-09
-5.72524e-09
-1.44079e-09
-2.28919e-09
2.45455e-09
1.27543e-09
2.58763e-09
-4.94981e-09
-2.25247e-09
4.61465e-09
-4.94531e-09
4.46836e-09
-4.67007e-09
5.14702e-09
3.56058e-11
3.5071e-11
-7.06768e-11
-2.62617e-09
-3.49265e-10
2.41942e-10
2.73349e-09
-1.72529e-09
2.99262e-09
-7.05664e-09
5.78931e-09
3.02862e-10
9.13719e-11
-7.50874e-09
-4.97353e-09
8.80414e-09
3.67813e-09
-8.59359e-10
1.59049e-09
1.05178e-09
-1.78291e-09
1.26588e-09
1.26587e-09
-1.38804e-09
-8.59186e-11
9.19517e-11
-2.64912e-10
2.58879e-10
-3.79228e-09
3.31331e-09
4.6624e-09
-4.18344e-09
-3.06718e-09
-9.00427e-10
3.24359e-09
7.24023e-10
-1.94819e-09
3.36919e-09
-7.86823e-09
6.44722e-09
5.44115e-10
4.50955e-09
-4.76263e-09
-2.91038e-10
2.98315e-09
-3.34123e-09
4.13096e-09
-3.77287e-09
4.77973e-09
-1.11988e-09
-3.55376e-09
-1.06093e-10
5.34274e-09
6.64149e-10
-1.95537e-09
-4.05152e-09
2.53843e-09
-1.5465e-09
2.62288e-09
-3.61482e-09
4.97458e-09
-5.2902e-09
5.36887e-09
-5.05326e-09
-3.75922e-10
-4.77475e-11
3.97124e-10
2.65447e-11
5.57287e-09
-5.45909e-09
-4.81499e-09
4.70121e-09
-6.25899e-09
-3.95629e-09
5.01814e-09
-2.30254e-09
-5.64354e-09
4.98679e-09
2.95928e-09
-1.78222e-09
2.80141e-09
-6.01157e-09
4.99238e-09
4.09999e-09
-4.22414e-09
-4.01849e-09
4.14263e-09
1.91486e-09
-9.63525e-10
-1.84881e-09
8.97477e-10
2.12208e-09
4.02032e-09
-2.12527e-09
3.67846e-09
-5.20839e-10
-4.24908e-09
1.09146e-09
-1.4252e-09
-2.53376e-09
1.23174e-09
2.72721e-09
-1.82583e-09
5.18358e-09
-5.00872e-09
-5.63317e-10
1.04268e-09
-3.02135e-09
2.86839e-09
-5.12125e-09
4.8405e-09
3.14109e-09
-3.38862e-09
-5.72487e-09
4.69554e-09
5.0002e-09
-4.06825e-09
-5.6275e-09
7.01802e-10
4.83692e-09
-5.36222e-09
-1.76503e-10
2.64965e-10
4.40228e-11
-1.99248e-10
-1.09739e-10
-2.6363e-09
-4.14566e-09
2.8926e-09
3.88936e-09
4.95701e-09
-3.37286e-09
-4.35257e-09
-2.89236e-09
1.28151e-09
-4.99073e-09
6.60158e-09
-3.29291e-09
3.263e-09
2.44469e-09
-2.41477e-09
4.33877e-09
-3.19748e-09
-7.65349e-09
6.5122e-09
8.22076e-10
-5.43145e-10
9.8695e-10
-4.39918e-09
5.6455e-09
-6.203e-09
4.95667e-09
-1.22162e-10
3.97412e-11
-2.64175e-10
-4.45371e-09
4.79149e-09
-5.99958e-09
5.6618e-09
-3.54733e-09
4.27436e-09
-5.69338e-09
4.96636e-09
-3.53878e-09
3.29915e-09
-4.76941e-09
5.00904e-09
3.65045e-09
-4.00736e-09
5.22828e-09
-4.87137e-09
-8.71163e-09
3.19611e-10
6.28973e-09
2.1023e-09
-3.19515e-09
-1.26665e-09
1.0881e-09
3.3737e-09
-6.13247e-10
7.90936e-10
-6.29834e-09
6.12065e-09
-2.58936e-09
-1.21069e-10
8.42655e-11
4.64994e-09
-2.51245e-09
-2.13749e-09
-1.87349e-09
9.04786e-09
-8.1828e-09
5.19256e-09
-2.81032e-09
-2.38224e-09
-1.58695e-09
-5.06922e-09
1.91785e-09
-3.3298e-09
1.48267e-09
-2.08311e-09
3.93025e-09
-8.30749e-10
2.9576e-09
-2.83268e-09
4.0801e-09
-2.28205e-09
-1.79805e-09
3.62467e-10
1.54443e-10
4.26282e-09
-2.50674e-09
-1.51707e-09
2.59861e-09
-4.71738e-09
5.86767e-09
-7.13096e-09
5.98067e-09
-2.63329e-09
2.73638e-09
3.75707e-09
-3.86015e-09
-2.42211e-10
3.06842e-10
1.35611e-10
-2.00242e-10
6.29229e-09
-6.93854e-09
1.1515e-09
-5.05256e-10
4.34884e-09
-4.29337e-09
3.14195e-09
-3.32638e-09
4.5173e-09
-4.33287e-09
-5.76749e-10
2.0754e-09
4.16204e-10
-2.76444e-09
-5.76601e-09
5.37027e-09
3.16018e-09
-5.13244e-09
5.06977e-09
5.21762e-09
-5.15494e-09
-3.85981e-09
-5.67133e-09
4.32928e-09
5.20186e-09
1.42823e-10
-1.77633e-10
3.6379e-10
-3.2898e-10
5.59879e-09
-4.62049e-09
5.7912e-09
-6.76951e-09
-4.73469e-09
-3.2714e-09
4.53789e-09
3.4682e-09
-5.33569e-09
4.85274e-09
-5.89424e-09
6.3772e-09
-4.38943e-09
4.82792e-09
-5.34878e-09
4.9103e-09
-1.08794e-09
-3.10977e-09
3.23946e-09
9.58247e-10
4.25958e-09
4.81413e-09
-3.83857e-09
-5.23514e-09
3.37965e-09
-3.75293e-09
5.08808e-09
-4.7148e-09
-2.52129e-10
-2.86795e-10
3.74067e-09
-3.20175e-09
-2.82793e-09
4.34444e-09
2.61524e-09
-4.13175e-09
-4.1735e-09
-4.09994e-10
4.43864e-09
1.44853e-10
2.22908e-09
-2.69445e-09
1.16108e-10
2.84629e-09
-4.1191e-09
-2.38888e-09
3.66168e-09
-1.00001e-08
4.98277e-09
-5.1432e-09
1.01605e-08
-4.36062e-09
-5.87682e-09
4.87968e-09
5.35776e-09
6.37925e-09
6.61874e-09
-7.57675e-09
-5.42125e-09
3.48534e-09
5.33393e-09
-3.42689e-09
-5.39238e-09
-3.10724e-09
-1.17585e-09
3.78871e-09
4.31097e-09
-3.47127e-09
-4.62841e-09
-3.34674e-09
-5.1681e-09
3.47215e-09
5.04269e-09
3.56191e-09
4.8473e-09
-3.96533e-09
-4.44387e-09
4.49928e-09
5.4371e-09
-5.20207e-09
-4.73432e-09
3.9453e-09
5.49267e-09
-4.24027e-09
-5.1977e-09
-3.99129e-09
-5.89033e-09
4.47812e-09
5.40349e-09
-3.19405e-09
-4.05045e-09
3.81104e-09
3.43346e-09
3.59281e-09
5.25125e-09
-3.61165e-09
-5.23241e-09
-3.26609e-09
-4.14256e-09
3.89611e-09
3.51254e-09
-3.03123e-09
-4.27423e-09
2.49974e-09
4.80572e-09
-4.39546e-09
-6.23667e-09
4.93796e-09
5.69417e-09
4.83418e-09
-4.19881e-09
-5.96085e-09
5.32548e-09
-2.45165e-09
-1.41918e-09
2.62018e-09
1.25065e-09
-2.0685e-10
2.09404e-09
-2.22628e-09
3.39087e-10
3.9435e-09
-3.1511e-09
7.14564e-09
-7.93804e-09
-4.94383e-09
-3.95416e-09
5.11149e-09
3.78649e-09
3.39899e-09
-3.49929e-09
5.50091e-09
-5.40061e-09
3.46955e-09
-3.23335e-09
5.42957e-09
-5.66577e-09
-3.28092e-09
3.84588e-09
-5.99216e-09
5.4272e-09
-4.49781e-09
4.01433e-09
-5.03275e-09
5.51623e-09
1.35661e-09
-2.65166e-09
2.551e-09
-6.58334e-09
6.29464e-09
-7.10509e-09
7.39379e-09
-4.48471e-09
-1.98741e-09
4.64628e-09
6.95631e-11
1.35381e-10
-1.36997e-10
-6.79474e-11
6.00914e-09
-5.66149e-09
6.8563e-09
-7.20395e-09
-5.22113e-09
3.71566e-09
-4.86505e-09
6.37052e-09
7.57495e-09
4.91955e-09
-6.11525e-09
3.56711e-09
-4.17531e-09
5.63244e-09
-5.02424e-09
-1.0532e-08
6.44263e-09
1.27383e-09
-5.76979e-09
-1.94668e-09
-4.76336e-09
5.99295e-09
3.7525e-09
-4.98209e-09
5.53835e-09
-6.712e-09
5.67294e-09
4.8838e-09
-5.72336e-09
4.78485e-09
-4.24057e-09
5.29783e-09
-4.32335e-09
-4.1502e-09
5.18007e-09
-4.22392e-09
4.75347e-09
-5.72825e-09
4.56759e-09
-4.27664e-09
5.44761e-09
-4.2022e-09
-5.31037e-09
6.56319e-09
-5.24411e-09
-5.68071e-09
7.05178e-09
-5.76653e-09
4.50208e-09
-5.38375e-09
4.44358e-09
-5.70153e-09
7.17869e-09
4.4921e-09
-5.96926e-09
-5.13708e-09
6.26301e-09
-4.98575e-09
4.75315e-09
-5.33299e-09
4.83943e-09
-4.71511e-09
5.80781e-09
-4.43944e-09
4.2357e-09
-4.74831e-09
4.30132e-09
-3.17545e-10
-2.19572e-09
-7.6095e-11
-5.69997e-09
6.96734e-09
-5.62799e-09
-7.51514e-09
-9.16823e-10
7.29589e-09
1.13608e-09
-4.80296e-09
-5.70879e-09
4.11739e-09
6.39436e-09
4.01221e-09
4.23745e-09
-5.26651e-09
6.9629e-10
-7.44309e-10
4.24627e-10
-3.76608e-10
5.09471e-09
2.31643e-09
-2.5311e-09
-4.88004e-09
4.44094e-09
-7.80502e-09
8.07511e-09
-4.71103e-09
4.96084e-09
-5.67158e-09
4.19608e-09
2.40158e-09
-3.12235e-09
-3.49517e-09
4.21594e-09
-2.72081e-09
6.03244e-09
-5.42406e-09
2.11243e-09
-5.39488e-09
1.7655e-09
-3.81591e-09
3.41055e-09
-7.10338e-09
-5.93053e-09
-5.30355e-09
4.64729e-09
6.58679e-09
-4.80036e-09
4.45636e-09
4.76004e-09
-4.41604e-09
2.18599e-09
4.37768e-09
-2.21483e-09
-1.19812e-09
-6.82537e-10
-7.23205e-09
9.11271e-09
4.10207e-09
6.33479e-09
-4.94448e-09
3.29487e-09
-3.01462e-09
4.22491e-09
-4.50515e-09
6.73038e-09
4.58387e-10
-6.48775e-09
-7.01017e-10
-7.21628e-09
7.05077e-09
2.36699e-10
-7.11905e-11
-5.09327e-09
-5.6276e-09
5.58842e-09
-7.79023e-09
-9.80185e-10
7.32426e-09
1.44615e-09
-2.51487e-09
2.1807e-09
-6.29351e-10
2.04222e-09
6.05464e-09
5.7013e-10
-6.20862e-09
-4.15612e-09
5.8292e-09
4.53554e-09
5.71891e-09
4.77127e-09
-4.57198e-09
-5.91821e-09
-2.27678e-09
2.07552e-09
3.83097e-09
-3.62971e-09
-5.27683e-09
5.28916e-09
4.08767e-09
3.8095e-09
6.11698e-09
-4.28077e-09
2.13241e-09
7.07579e-09
-1.0558e-09
-8.1524e-09
-2.0104e-11
1.17905e-09
6.27924e-09
-4.88657e-09
3.68727e-09
-5.3457e-09
6.83175e-10
6.56418e-09
-1.90165e-09
5.35208e-09
5.93267e-09
-6.31017e-09
-5.27202e-09
-6.55628e-09
4.91886e-09
6.90943e-09
3.58531e-09
3.48763e-09
-3.38862e-09
-3.68432e-09
4.85148e-09
5.7842e-09
-4.43144e-09
-6.20423e-09
-6.53866e-09
7.21664e-09
7.14089e-09
-7.81887e-09
-6.99713e-09
2.15413e-09
4.20678e-09
6.36221e-10
-2.90586e-09
7.55692e-10
-9.17013e-10
-6.09546e-09
7.75532e-09
5.01596e-09
-6.67583e-09
4.46463e-09
6.89412e-09
-5.78589e-09
-3.33678e-09
-5.39158e-09
3.67204e-09
-3.96205e-09
-6.59615e-09
4.48151e-09
4.44395e-09
6.93102e-09
-5.42522e-09
4.44282e-09
7.13659e-09
-5.10192e-09
-3.76026e-09
-5.60916e-09
3.97659e-09
3.8336e-09
5.84709e-09
-4.67436e-09
2.62836e-09
3.30108e-09
-3.14113e-09
-2.78831e-09
-4.97009e-09
-7.23697e-09
5.48409e-09
-4.00299e-09
-5.66711e-09
4.14369e-09
3.53327e-09
5.34028e-09
-3.74293e-09
4.39321e-09
6.36815e-09
-5.16053e-09
3.45008e-09
5.55035e-09
-3.79324e-09
-5.31087e-09
-6.77505e-10
1.15161e-09
4.83677e-09
1.2185e-09
5.01768e-09
7.09915e-09
-1.10376e-09
-5.83238e-09
-1.62996e-10
5.84449e-09
-1.82887e-10
-5.85235e-09
1.90752e-10
6.75309e-09
-1.28132e-10
-6.80417e-09
1.79213e-10
7.47259e-09
-2.02149e-10
-8.26762e-09
9.9718e-10
-6.39259e-09
4.18641e-09
1.5633e-09
6.42882e-10
5.3403e-09
-5.903e-09
2.36505e-10
3.26191e-10
-6.89499e-09
7.01995e-09
-1.19356e-10
-5.60004e-12
-7.25575e-09
7.23965e-09
-2.4756e-12
1.85691e-11
-6.94822e-09
6.67836e-09
-1.93248e-10
4.63112e-10
-8.02143e-09
6.96024e-09
2.09016e-09
-1.02897e-09
-8.35158e-09
8.51754e-09
-2.49781e-10
8.38212e-11
-6.37432e-09
6.50977e-09
-2.29888e-10
9.44379e-11
-5.44129e-09
6.50494e-09
-1.21817e-11
-1.05146e-09
-6.13039e-09
5.04482e-09
1.50282e-09
-4.17255e-10
-6.18517e-09
5.04359e-09
-4.93703e-10
1.63528e-09
-5.56461e-09
6.65499e-09
-1.67967e-11
-1.07358e-09
-8.10762e-09
7.84553e-09
-8.81863e-11
3.50271e-10
-5.37978e-09
6.29513e-09
1.20638e-11
-9.27411e-10
-6.40191e-09
6.4494e-09
-8.4788e-11
3.72972e-11
-6.52791e-09
6.62562e-09
-8.07007e-11
-1.70118e-11
-6.40593e-09
6.39713e-09
-1.316e-10
1.40396e-10
-7.89567e-09
8.07162e-09
-1.13165e-10
-6.27837e-11
7.19471e-09
-8.71106e-09
3.60739e-11
1.48028e-09
8.73728e-09
-8.45457e-09
2.16604e-10
-4.99314e-10
-4.22698e-09
-1.71224e-09
4.49125e-09
1.44797e-09
6.14309e-09
-6.61122e-09
-1.45109e-10
5.79722e-09
1.42216e-09
-5.65891e-09
-4.5443e-09
1.02467e-09
6.26793e-09
-6.63629e-09
-4.92184e-09
-6.33441e-09
5.89998e-09
4.00154e-09
1.98339e-09
4.77134e-09
-4.20012e-09
-2.5546e-09
-1.61364e-09
-2.2788e-09
-4.87675e-09
5.11604e-09
-4.95667e-09
4.8693e-09
-5.36887e-09
5.85166e-09
-2.2019e-09
5.97997e-09
1.31664e-09
-3.80954e-09
5.92381e-09
-5.1206e-09
3.00633e-09
1.65757e-10
-2.40032e-11
-1.41754e-10
3.8478e-09
5.73298e-09
-4.11626e-09
4.16421e-09
6.31946e-09
-4.87847e-09
-3.90766e-09
-5.4118e-09
4.34085e-09
-6.17715e-09
7.9174e-09
-6.71378e-09
2.39468e-10
-4.17213e-10
7.71387e-09
-6.9666e-09
7.10763e-09
-3.95057e-09
4.72037e-09
-4.8085e-09
-1.49882e-09
-5.22869e-09
-3.834e-09
4.20155e-09
-3.18427e-09
-5.0883e-09
3.66429e-09
3.00026e-09
5.02763e-09
-3.71645e-09
3.70068e-09
5.64126e-09
-4.17374e-09
3.62264e-09
5.50849e-09
-4.09051e-09
-2.06092e-09
5.4298e-09
-5.27078e-09
-5.32789e-09
4.32134e-09
6.27733e-09
1.52686e-09
-2.39151e-09
-1.64209e-09
-1.75937e-10
-1.05116e-10
5.78007e-11
2.23252e-10
-3.49366e-09
3.71362e-09
5.87542e-09
5.18299e-09
4.80881e-09
-5.92917e-09
-4.06263e-09
6.40437e-09
-7.26137e-09
-2.79504e-09
3.65205e-09
1.4478e-09
-6.45901e-09
5.52225e-10
-3.89409e-10
3.67335e-11
-3.07604e-09
-3.67021e-09
2.95397e-09
-4.76405e-09
-1.05342e-09
5.19282e-09
6.24648e-10
7.24821e-09
-5.81328e-10
-3.74591e-10
5.8397e-09
-4.80426e-09
6.11328e-09
-7.14872e-09
5.3744e-09
-4.01322e-09
4.73917e-09
-6.10035e-09
3.74256e-09
5.94941e-09
-4.14053e-09
3.60081e-09
5.71277e-09
-3.98725e-09
3.65729e-09
5.81409e-09
-4.0439e-09
-2.09714e-09
2.94432e-09
-4.14009e-09
-4.56822e-09
-4.18376e-09
5.16048e-09
3.59151e-09
4.82297e-09
5.7093e-09
-3.98742e-09
-6.54484e-09
2.48945e-09
-6.4046e-09
-2.23208e-09
6.14724e-09
-1.04441e-09
4.23504e-09
-4.89724e-09
3.50815e-09
-4.10772e-09
5.4968e-09
-2.76368e-10
4.37592e-09
1.35762e-09
-4.26772e-09
-2.99669e-09
-1.01351e-09
4.3597e-09
1.71046e-09
-1.61486e-09
-4.4553e-09
-6.32743e-09
-4.15211e-09
5.74658e-09
4.73295e-09
-5.07609e-09
4.54568e-09
-4.74163e-09
5.27204e-09
7.36693e-09
2.3539e-09
-3.58011e-09
-6.14071e-09
-7.68546e-09
7.02564e-09
-2.08825e-09
2.74807e-09
-5.5775e-09
6.85785e-09
-4.77401e-09
4.3894e-10
-2.31492e-09
6.39349e-09
2.98543e-09
-6.60557e-09
-2.77335e-09
-7.28887e-09
3.74504e-09
-3.39265e-09
6.93649e-09
-5.33606e-09
-2.77226e-10
3.02416e-10
5.23345e-09
1.94813e-09
-3.60778e-09
-3.57379e-09
-5.48006e-09
6.68574e-09
-4.14025e-09
2.93457e-09
-5.6148e-09
4.89384e-09
5.30286e-09
3.1868e-09
-7.53872e-09
6.48432e-09
-2.46508e-09
1.55734e-09
-1.79009e-09
2.69783e-09
-5.76491e-09
1.08956e-09
5.08283e-09
-4.07486e-10
-1.81913e-09
8.30427e-09
-8.35863e-09
-3.71879e-09
-3.60739e-09
4.68988e-09
-3.00382e-09
4.72175e-09
-6.36099e-09
-3.1128e-09
4.90308e-09
-6.60444e-09
-3.18134e-09
5.01891e-09
-6.75898e-09
-3.06149e-09
4.8167e-09
-6.48921e-09
-2.42608e-09
-4.91402e-09
3.01061e-09
-3.6326e-09
5.53601e-09
-4.73137e-09
6.46598e-09
4.65887e-09
-5.67773e-09
-7.16083e-09
8.56928e-09
4.26928e-09
-1.07168e-10
-6.09229e-10
-4.98379e-12
7.21381e-10
-4.45566e-09
6.09913e-09
-8.18213e-09
5.75821e-09
1.15558e-09
-6.26286e-09
-6.50919e-10
-6.88361e-09
-1.53875e-09
7.33763e-09
1.08473e-09
-7.19173e-09
-1.16147e-09
1.61446e-12
-5.93042e-09
-1.07718e-09
6.33284e-10
-5.82149e-09
-1.36476e-09
1.00108e-09
-4.42683e-09
-9.00186e-10
-1.14277e-10
-4.5253e-09
-9.24538e-10
-1.14779e-10
6.08354e-09
1.46211e-09
-1.10301e-09
5.94688e-09
1.06889e-09
1.78944e-10
4.41895e-09
5.24523e-09
-5.32752e-09
-4.33667e-09
5.44815e-09
-5.61501e-09
2.45302e-09
-2.28616e-09
-3.17096e-09
-1.42549e-09
5.15459e-10
5.26473e-09
-5.43007e-09
-3.50114e-10
-4.85682e-09
-6.68897e-09
6.0867e-09
-3.29453e-09
5.71374e-09
-7.342e-09
-2.63224e-10
1.06623e-10
-3.07739e-10
5.63409e-09
5.18135e-10
-5.60967e-11
-8.58048e-11
-4.9918e-10
6.56103e-09
1.41074e-09
6.13524e-10
-6.16502e-09
-8.41087e-10
3.85245e-10
-5.81343e-09
-4.74816e-10
-3.77638e-10
6.41119e-09
9.864e-10
-1.16433e-10
4.07867e-10
-3.82089e-10
6.33073e-09
7.29715e-10
1.0273e-09
-7.2579e-09
-1.79083e-09
-1.8456e-10
5.94487e-10
2.60181e-11
7.70065e-11
-9.54375e-11
1.99284e-10
2.96736e-11
9.74072e-11
6.92174e-10
-5.79797e-09
-1.02459e-09
-1.20741e-10
-2.15457e-10
-6.0112e-11
9.97333e-12
-2.27709e-10
5.91076e-09
6.12083e-10
-3.03976e-10
6.41617e-09
5.13422e-10
-2.99656e-10
6.26449e-09
4.84567e-10
-3.3239e-10
6.16241e-09
5.67113e-10
-3.74635e-10
7.64517e-09
8.01081e-10
-5.68855e-11
8.31083e-11
6.57754e-10
-8.05388e-09
-1.05844e-09
9.51522e-10
-1.19931e-09
-1.29737e-09
5.98993e-09
-3.15159e-10
1.39944e-09
-7.07421e-09
-4.2232e-09
1.68267e-09
-1.01266e-09
3.55319e-09
-2.74307e-09
6.96941e-09
1.69748e-09
-4.05438e-09
5.11924e-09
-5.29505e-09
8.10532e-10
-3.68081e-09
-6.70014e-11
2.93728e-09
-6.49316e-09
-1.66591e-09
4.73609e-10
4.00609e-09
-4.06521e-09
-3.28211e-09
-3.47162e-09
-7.01101e-09
6.95084e-09
3.53179e-09
3.14237e-10
5.51116e-09
-5.14857e-09
-6.76833e-10
-3.71069e-09
-6.01106e-09
2.14544e-09
3.78918e-09
-3.11673e-09
-2.81789e-09
-3.88989e-09
-4.85213e-09
2.41459e-09
-3.66245e-09
5.87953e-09
-7.89695e-09
-1.2706e-09
1.82762e-09
3.66332e-09
-4.22034e-09
-5.38298e-09
-5.2179e-09
5.78589e-09
-2.38772e-09
-7.49825e-09
5.57205e-09
4.31392e-09
8.73054e-10
3.78916e-09
-4.66221e-09
1.16475e-09
3.76796e-09
-4.93271e-09
1.44906e-09
5.02785e-09
-6.47691e-09
-3.59812e-09
3.25946e-09
-4.14143e-09
4.48009e-09
-4.2012e-09
4.57529e-09
-5.75583e-09
5.38175e-09
2.80811e-09
-3.03754e-09
5.27425e-09
4.12078e-09
-3.82556e-09
4.78321e-09
-5.07842e-09
-3.81881e-09
5.07303e-09
-3.5722e-11
-3.48877e-09
4.52598e-09
2.97499e-09
-2.39343e-09
3.14269e-09
-1.0668e-09
4.68111e-09
-1.96915e-10
-4.55469e-11
-5.67947e-09
5.64987e-09
7.24624e-09
3.57833e-09
5.39167e-09
-4.55105e-09
1.44093e-10
-2.78041e-10
3.7882e-10
-2.44871e-10
5.25699e-10
-6.65925e-09
-8.0499e-10
4.88129e-09
3.11449e-09
-5.12739e-09
-5.87435e-09
-4.68653e-09
5.60313e-09
4.95774e-09
3.79399e-09
-3.87535e-09
7.04161e-09
-6.56918e-09
-1.99093e-09
7.69887e-10
7.29778e-09
-7.45231e-09
-4.02446e-10
-5.41409e-09
3.25594e-09
7.02876e-09
-4.8706e-09
-7.02043e-09
-4.61419e-09
5.05128e-09
6.68948e-09
4.18288e-09
-4.86322e-09
-6.93479e-09
5.18106e-09
5.29505e-09
-4.97991e-09
-3.5389e-09
4.021e-09
-5.88671e-09
-3.94401e-09
4.60959e-09
4.85629e-10
-2.51383e-09
-3.65233e-10
-6.09833e-09
3.95937e-09
-3.32221e-09
5.46116e-09
6.2764e-09
7.53643e-10
-6.50435e-09
-4.48644e-09
2.0228e-10
-2.2802e-09
6.59476e-09
-5.19717e-09
-5.60827e-09
3.6817e-09
-5.90169e-09
4.68677e-09
5.75152e-09
3.85271e-09
-3.78765e-09
5.93343e-09
-5.99848e-09
-7.20075e-10
-7.66916e-09
8.42803e-09
-3.87931e-11
2.45105e-10
5.98011e-09
8.25553e-10
3.69755e-10
5.77368e-09
5.86947e-10
-6.69781e-09
4.44774e-09
-4.43484e-09
6.6849e-09
3.73512e-09
2.34083e-09
-1.40232e-09
-4.67364e-09
3.95872e-09
5.37972e-09
-3.48436e-09
-5.85407e-09
-5.742e-09
1.31541e-09
-2.08701e-09
6.5136e-09
-8.48992e-09
5.79228e-09
1.40506e-09
1.29259e-09
9.02051e-10
3.66268e-09
-6.09336e-09
1.52862e-09
3.23836e-10
1.32132e-09
-1.28583e-09
-3.59325e-10
-6.32929e-09
-6.45497e-10
-4.38716e-10
7.41351e-09
-5.47175e-09
-3.53215e-09
4.06007e-09
-4.23691e-09
4.71083e-09
-6.10407e-09
5.63015e-09
-4.62151e-09
-4.67786e-09
4.49641e-09
4.19194e-09
-3.97636e-09
3.25524e-09
-3.47082e-09
5.00043e-09
-4.37796e-09
5.46775e-09
-6.09021e-09
3.23221e-10
-1.74019e-10
-4.91325e-09
4.41314e-10
-4.20469e-10
-5.15866e-10
4.95021e-10
-3.30006e-09
3.97077e-09
-3.65615e-09
3.61377e-09
-4.02215e-09
6.92231e-09
-6.51394e-09
5.12887e-09
3.92313e-09
-5.1816e-09
-3.8704e-09
-9.19355e-11
3.7597e-10
5.67299e-09
1.6059e-09
-1.87868e-09
-5.40021e-09
5.45812e-09
-6.21103e-09
5.62222e-09
-1.03071e-09
-2.7059e-09
5.11254e-09
-7.80473e-09
1.1577e-08
-8.88481e-09
4.09492e-09
-4.12258e-09
-1.08404e-09
1.1117e-09
3.35648e-09
5.30087e-09
-4.47094e-09
1.94891e-10
1.16963e-10
-7.45252e-09
7.14066e-09
5.16791e-09
-7.23178e-09
5.25067e-09
4.25769e-10
7.93775e-09
-2.19634e-09
-4.01565e-09
4.49195e-09
-5.5969e-09
2.39761e-09
-2.40934e-09
-3.70706e-09
4.98897e-09
1.28419e-09
-5.37111e-09
7.31284e-09
3.52857e-10
-7.68381e-09
1.22498e-10
-2.28871e-10
-6.47303e-09
6.45662e-09
8.8947e-10
-6.23316e-09
6.04695e-09
1.35096e-09
-8.26908e-09
8.2858e-09
1.43234e-09
7.29559e-09
-6.19903e-09
5.92067e-09
1.0693e-09
4.24043e-11
-4.79097e-09
6.98101e-09
-8.64264e-09
-1.7936e-11
1.67957e-09
-4.15229e-09
3.84894e-09
5.19447e-09
4.27204e-09
-3.91182e-09
-5.0236e-09
4.66339e-09
5.0673e-09
7.57331e-09
-5.49972e-09
-4.04006e-10
-5.01536e-10
3.97037e-10
5.08505e-10
-4.41954e-09
-1.08772e-09
6.22462e-10
4.8848e-09
-2.39991e-10
-1.81657e-11
3.19968e-10
-6.18113e-11
3.50027e-09
-4.49195e-09
3.99801e-09
-1.38906e-09
6.7339e-09
3.28151e-10
3.11825e-09
5.95039e-10
-6.44016e-09
5.60045e-09
6.78659e-09
-3.64346e-09
4.20955e-09
5.51745e-09
4.91719e-09
-4.22662e-09
-5.21587e-09
4.80713e-09
-4.13502e-09
-5.09894e-09
-4.31797e-09
3.21011e-09
-4.82256e-09
3.45299e-09
-5.5243e-09
-4.8123e-09
-2.41268e-09
4.34189e-09
3.829e-09
2.63277e-09
-5.19311e-09
-4.63138e-09
3.46921e-09
-4.01497e-09
-5.27574e-09
3.87136e-09
-2.55575e-09
-4.31392e-09
6.80972e-09
-5.87954e-09
-3.97618e-09
4.3999e-09
1.72172e-09
-2.57629e-09
8.66195e-10
7.74265e-10
6.4129e-11
-9.90882e-10
1.52487e-10
-9.00742e-10
-5.76146e-09
-8.52938e-10
7.43049e-09
1.21819e-10
4.92779e-09
4.1663e-09
-4.77796e-09
-4.31613e-09
-5.19766e-09
3.35814e-09
-2.68808e-09
4.5276e-09
-9.05123e-09
6.35688e-09
6.30812e-09
-2.53719e-10
7.13428e-09
6.51193e-09
7.88382e-10
-1.95757e-09
-1.10795e-10
-5.27093e-10
5.3072e-10
-5.08391e-09
4.2267e-09
5.69045e-09
-4.83324e-09
-1.52097e-09
2.25342e-09
-1.7846e-09
1.05216e-09
1.669e-09
-1.48912e-09
-5.2491e-09
-2.82121e-09
-1.0925e-09
4.01462e-09
-4.18662e-09
-3.12807e-09
1.54822e-09
4.41367e-09
-1.07817e-09
-4.88372e-09
-7.33284e-09
4.91821e-09
-4.19385e-09
2.91553e-09
6.23917e-09
-5.59938e-09
-5.31168e-09
5.23333e-09
1.09247e-10
-4.64136e-10
-1.37927e-10
4.92816e-10
-5.51928e-09
3.58523e-09
-5.49324e-09
5.4385e-09
1.72374e-09
7.58233e-10
6.86715e-09
3.64972e-09
-3.58838e-09
4.20095e-09
-4.26229e-09
-6.55778e-09
4.08407e-09
4.89111e-09
-4.30497e-09
4.27079e-09
-4.85693e-09
-5.46612e-09
4.72226e-09
-4.85968e-09
5.60354e-09
2.27884e-09
-1.95067e-09
6.54177e-09
-6.86994e-09
4.64731e-09
-3.03286e-09
-5.00307e-09
6.73e-09
-6.83359e-09
-5.59794e-09
-4.46564e-09
4.76678e-09
4.20094e-09
5.72329e-09
-5.75989e-09
-4.72676e-09
-5.84429e-09
5.7552e-09
5.62744e-09
4.3155e-09
-4.28335e-09
-4.18236e-09
4.41478e-09
-4.37652e-09
-4.27882e-09
-5.20503e-09
5.73059e-09
4.35824e-09
-4.79055e-09
5.46263e-09
4.08139e-09
5.56387e-09
-6.19589e-09
-4.67835e-09
4.06234e-09
-4.28582e-09
-4.05315e-09
5.72399e-09
-5.82674e-09
-5.57796e-09
4.00881e-09
-3.36663e-09
-7.15943e-09
-1.15346e-09
6.92508e-09
1.38782e-09
1.11119e-09
-3.69809e-09
7.44239e-09
-5.05177e-09
4.23079e-09
-5.11013e-09
5.23839e-09
-4.65862e-09
4.53036e-09
5.10028e-11
-7.83388e-09
7.89984e-09
-4.14601e-09
4.19305e-09
1.06416e-09
-1.37656e-09
1.49328e-09
-1.96552e-09
-8.16823e-10
-1.02226e-09
6.99772e-10
1.13931e-09
6.70172e-09
-4.53588e-09
3.82548e-09
-5.14188e-09
-4.367e-09
4.87298e-09
4.6359e-09
3.49534e-10
-4.6978e-11
3.07941e-09
-4.97592e-09
6.79776e-09
-6.10759e-09
-4.15889e-09
-5.05477e-09
-4.53572e-10
6.94809e-09
-1.43975e-09
-4.82728e-09
4.03452e-09
6.68604e-09
-5.89328e-09
3.70667e-09
3.39311e-09
-3.35163e-09
-3.74815e-09
5.77761e-09
-4.4148e-09
-6.30812e-09
2.26613e-09
-3.66441e-09
-1.52507e-09
2.92335e-09
1.14697e-09
-1.01994e-09
1.16846e-09
-1.29548e-09
4.51974e-09
-4.95103e-09
-3.57779e-09
4.00908e-09
4.63424e-09
-5.38927e-09
7.54103e-09
-5.22807e-09
-5.55129e-09
6.20928e-09
7.75929e-09
-6.14089e-09
3.51048e-09
2.23224e-09
-1.66318e-09
5.99555e-10
-1.16862e-09
-8.94279e-10
-4.34055e-10
5.42325e-09
-2.40065e-09
2.84321e-09
-5.56382e-09
-5.06704e-09
-3.33457e-09
4.30334e-09
4.09827e-09
-3.97754e-09
-5.93365e-09
-2.61947e-09
2.62339e-09
2.53451e-09
7.84046e-10
-3.79783e-09