/*--------------------------------*- C++ -*----------------------------------*\
  =========                 |
  \\      /  F ield         | OpenFOAM: The Open Source CFD Toolbox
   \\    /   O peration     | Website:  https://openfoam.org
    \\  /    A nd           | Version:  8
     \\/     M anipulation  |
\*---------------------------------------------------------------------------*/
FoamFile
{
    version     2.0;
    format      ascii;
    class       volVectorField;
    location    "7.2";
    object      U;
}
// * * * * * * * * * * * * * * * * * * * * * * * * * * * * * * * * * * * * * //

dimensions      [0 1 -1 0 0 0 0];

internalField   nonuniform List<vector> 
17372
(
(0.00064237 0.00111305 1.26477e-21)
(7.89668e-05 0.000242248 4.56413e-21)
(0.00063235 0.00110764 1.34541e-23)
(0.000572156 0.00102934 1.72187e-21)
(0.000110128 2.56966e-05 -2.68604e-22)
(6.72717e-05 0.000251265 -2.11054e-21)
(0.000624416 0.0010689 1.11685e-22)
(0.000253579 0.000542229 -5.10015e-22)
(0.000634473 0.00110738 -2.33053e-22)
(0.000471144 0.000631483 5.39911e-22)
(0.000605621 0.00097809 -1.24659e-21)
(0.000131262 0.000185132 1.10422e-21)
(0.00119806 6.47551e-05 1.52743e-21)
(0.000953442 8.72237e-05 1.15021e-21)
(0.000620087 0.00107479 -1.22512e-22)
(0.000227231 0.000437037 -5.94083e-22)
(0.000129377 0.000175503 -1.68366e-21)
(0.00039808 0.000189385 1.16913e-21)
(0.000982145 5.44301e-05 4.65076e-25)
(0.000191436 0.000595877 0)
(0.000617449 0.00107406 -5.72161e-23)
(0.00056785 0.00108427 -1.66506e-22)
(0.000644394 0.00111526 -1.6502e-21)
(0.000209278 0.000590196 -3.51041e-21)
(0.000424511 0.000127014 -3.24158e-21)
(0.000616005 0.00107456 5.744e-23)
(0.000643846 0.00111524 4.71595e-24)
(0.000589134 0.000998769 4.63663e-22)
(0.0010063 6.17942e-05 8.97223e-22)
(0.000644069 0.0011154 -8.35782e-22)
(0.000641597 0.00110991 -2.44145e-22)
(8.98964e-05 8.84736e-05 1.48634e-21)
(0.000644293 0.00111535 -6.135e-24)
(0.000615646 0.00107529 -2.69814e-22)
(0.00016859 0.000715791 5.82035e-22)
(0.000502987 0.000876971 -5.21965e-24)
(0.00061645 0.00107464 0)
(0.000261525 0.000176854 -3.25047e-23)
(0.000532059 0.000928115 3.17871e-22)
(0.0004619 0.000855282 3.97371e-23)
(0.000643725 0.00111506 5.27188e-24)
(0.000587584 0.00105004 2.80028e-22)
(0.000609903 0.00106093 3.71432e-22)
(0.000654676 0.000580969 3.00518e-23)
(0.000503575 0.00087285 0)
(0.000644568 0.00111522 8.10423e-22)
(4.55407e-05 0.000200277 4.33079e-22)
(0.000281862 0.00048774 -1.01808e-22)
(0.000616841 0.00107519 -1.9365e-22)
(0.000520435 0.00088785 4.99457e-22)
(3.24813e-05 0.000261554 1.04809e-21)
(0.000620244 0.00107144 3.41864e-22)
(0.000523112 0.000889823 -5.79381e-24)
(0.000641077 0.0011157 8.55694e-22)
(0.000409452 0.000182865 -9.35678e-22)
(0.000219595 0.000123006 -2.95955e-22)
(0.000615326 0.00107323 -2.22865e-22)
(0.00054463 0.00101607 1.92982e-23)
(0.000642122 0.00110715 -2.72283e-22)
(0.000219547 0.000506773 -8.57334e-22)
(0.0005046 0.000875444 1.09501e-23)
(0.000465207 0.000566372 -4.3943e-22)
(0.000644145 0.00111543 8.27801e-22)
(0.000626471 0.00106561 6.88509e-22)
(0.000590324 0.000961334 -5.10698e-24)
(0.000209819 0.00051125 1.05963e-21)
(0.00049995 0.000875347 -2.91995e-22)
(0.00048107 0.000894352 -5.33115e-23)
(0.000413467 0.00121689 -2.08784e-24)
(0.000271924 0.000196954 2.24525e-22)
(0.000709217 0.000407386 0)
(0.000272201 0.00047679 1.96216e-22)
(0.000720421 0.00124557 -3.47047e-22)
(0.000510199 0.000876837 1.03334e-21)
(0.000547946 0.000927332 -1.06207e-21)
(0.000594784 0.00102621 -1.1277e-21)
(0.000569262 0.000982171 -3.77563e-22)
(0.000605457 0.00106262 0)
(0.000537969 0.00116265 5.18474e-22)
(0.000530623 0.000987675 -2.82515e-21)
(1.0405e-05 0.000231375 0)
(0.00048677 0.000867704 3.67387e-22)
(0.000539195 0.000924875 -8.55539e-22)
(0.000113148 3.35962e-05 -1.43201e-21)
(9.4692e-06 0.000238729 -1.36678e-22)
(0.000613511 0.0010826 0)
(0.000518114 0.000884776 -1.01906e-21)
(0.00056155 0.000985967 -1.008e-24)
(0.000618362 0.00107579 1.74252e-22)
(1.09738e-05 0.000426873 0)
(0.000706592 0.00128502 -8.1903e-23)
(0.000614377 0.00108115 7.08394e-23)
(0.000464015 0.000487372 0)
(0.000581804 -4.30341e-05 -1.00703e-21)
(5.3835e-06 0.000502247 -6.92158e-22)
(0.000643803 0.00111475 9.21555e-22)
(0.000992806 -2.76855e-05 0)
(4.61357e-05 0.000192599 1.99639e-22)
(0.000417324 0.000168114 -1.02835e-21)
(0.000237894 0.000557461 3.15931e-25)
(0.000867923 0.000269607 -5.9049e-22)
(0.000503629 0.000869008 8.6476e-22)
(0.000266793 0.000186658 -1.28275e-22)
(0.000153631 0.000346966 -1.1248e-21)
(0.000640911 0.00110375 0)
(0.000615552 0.00107683 7.61705e-24)
(0.000650233 0.00110978 1.70822e-24)
(0.000961209 0.000857822 -4.53863e-21)
(0.000126285 0.000123355 0)
(0.000506986 0.000874724 -1.54546e-21)
(0.000731783 0.00150435 0)
(0.000298481 0.000301066 1.09425e-21)
(0.000509661 0.00087909 9.00347e-22)
(0.000520761 0.000892716 -9.70603e-22)
(0.000622671 0.00108781 0)
(0.000490603 0.00085371 -1.09014e-22)
(0.000512373 0.000883781 -9.21104e-22)
(0.000613105 0.00107643 -1.62514e-22)
(0.000632297 0.00115172 0)
(0.000515152 0.000888271 0)
(0.000638149 0.00110708 2.44031e-22)
(0.000517763 0.00089192 -2.35234e-22)
(0.000640945 0.00110568 2.65571e-22)
(0.000527843 0.000935307 1.1903e-22)
(0.000279052 0.000207427 -1.32475e-22)
(0.000640457 0.00110282 2.79322e-22)
(0.000614889 0.00105813 8.08503e-22)
(0.000492925 0.00050767 3.8162e-22)
(6.75724e-05 -8.98074e-06 -6.91835e-22)
(0.000520123 0.000893283 -4.76034e-22)
(0.000638644 0.00109912 -3.06144e-22)
(0.000611416 0.00105361 0)
(0.000643911 0.00111536 8.55419e-22)
(0.0005206 0.000889834 4.92888e-22)
(0.000618594 0.0010644 2.57866e-22)
(0.000483641 0.000520899 5.17501e-22)
(0.000533576 0.000986915 -6.10601e-22)
(0.000621188 0.00106947 -2.37943e-22)
(0.000593854 0.0012802 -6.40089e-22)
(0.000134668 0.000139401 -8.96216e-22)
(0.000498263 0.000601341 9.40818e-22)
(0.000624063 0.00107406 2.28987e-22)
(0.000629773 0.0010848 0)
(0.000635879 0.00109428 -3.29436e-22)
(4.41178e-05 0.000483683 9.01771e-23)
(0.000629715 0.00108508 0)
(0.000632051 0.00108696 5.30226e-24)
(0.000977301 4.88409e-05 -8.65733e-22)
(0.000675376 0.000644667 -8.84098e-22)
(0.000573634 0.00103438 -1.87435e-24)
(0.000323705 0.000568822 -1.08359e-22)
(0.000524241 0.000900203 -8.82625e-22)
(0.000572236 0.00129227 -5.49899e-24)
(0.000720707 0.00124566 3.14415e-22)
(2.41859e-05 0.000344124 8.30472e-22)
(0.000542317 0.000933861 3.76727e-22)
(0.00104678 0.00106349 7.19546e-22)
(8.27331e-05 1.89847e-05 -5.07001e-23)
(8.2028e-05 0.00051236 -1.89987e-21)
(0.000501553 0.000864345 1.06884e-21)
(0.000638594 0.00109959 -6.4115e-22)
(0.000127904 0.000141009 -4.67733e-22)
(0.0005903 0.00102161 7.65372e-22)
(0.000603172 0.000123836 2.21661e-21)
(0.000644088 0.00111429 4.81619e-24)
(0.000688823 0.000515259 8.77032e-22)
(0.000608194 0.00104426 -1.36047e-21)
(0.000643544 0.000239952 -1.06788e-21)
(0.000327585 0.000571338 2.13393e-22)
(0.000504674 0.000866042 -5.76756e-22)
(0.000354518 0.000895106 -5.67122e-23)
(0.000498896 0.000870408 1.61275e-22)
(0.000527774 0.000928396 2.0496e-21)
(0.000281283 0.000319321 1.08179e-21)
(0.00060951 0.00105122 -1.18138e-21)
(0.000506458 0.000890458 4.2438e-22)
(0.0005855 0.000979476 -1.97103e-22)
(0.000187579 0.000584428 1.05462e-21)
(0.000485579 0.000572142 2.73968e-22)
(0.000135172 0.000154667 -6.06765e-23)
(0.000171937 0.000712181 1.16424e-21)
(0.000584087 0.00100744 1.53104e-21)
(7.3293e-06 0.000411617 0)
(0.000245339 0.000460468 5.41622e-23)
(0.000522538 0.00090041 -4.5146e-22)
(0.000642665 0.00110449 -4.85722e-24)
(0.000634997 0.00117167 -5.84484e-23)
(5.71574e-05 0.000143509 3.07543e-22)
(0.000419951 0.00119685 -2.20968e-23)
(4.37005e-05 3.35286e-05 3.89171e-22)
(0.000502084 0.000919514 6.67592e-23)
(0.000305892 0.000569859 -7.61175e-22)
(0.000543006 0.000965784 -2.67311e-22)
(0.000251945 0.000434533 0)
(0.00051875 0.000892282 1.43592e-21)
(5.48859e-05 0.000121196 0)
(0.000460862 0.000912323 0)
(0.000674386 0.00118968 1.5576e-22)
(0.00023495 0.000248657 -5.86474e-22)
(0.00116673 0.000821606 0)
(4.82976e-05 0.000119648 -4.16783e-22)
(0.000436971 0.000629605 -7.20792e-23)
(0.00042548 -1.56598e-05 -1.8951e-25)
(0.000542048 0.000950306 -6.1735e-22)
(0.000433034 0.000785382 -1.29051e-23)
(9.66804e-05 2.38365e-05 1.0638e-21)
(0.000581388 0.00101828 0)
(0.000819334 0.000398806 1.53951e-22)
(0.000615909 0.00107633 -5.73251e-24)
(0.000632528 0.00109057 3.59714e-22)
(0.00056093 0.000965163 -8.83784e-22)
(0.000643731 0.00111519 8.76059e-22)
(0.000580117 0.000991035 -2.38416e-21)
(0.000567395 0.000976615 8.46239e-22)
(5.90065e-05 0.000162128 0)
(0.000543616 0.00093753 0)
(0.000553565 0.000966684 1.15429e-21)
(0.000537321 0.000957886 2.11633e-21)
(0.000881021 0.000250173 6.05234e-22)
(0.000595851 0.00116231 -7.66978e-23)
(0.000560674 0.000952991 -4.6165e-22)
(0.000199888 0.000525472 0)
(5.79618e-05 0.00013203 1.03968e-22)
(0.000958321 0.000137795 -3.18094e-21)
(0.000635508 0.00109425 -3.44045e-22)
(0.000406918 -5.82679e-06 2.6863e-21)
(0.00063367 0.00110474 3.92025e-23)
(0.000277855 0.000757375 3.29547e-21)
(-0.000463215 0.000372616 -1.55411e-23)
(0.000501001 0.000862494 0)
(0.000256288 0.000167276 2.72749e-22)
(0.000604256 0.00105072 1.15241e-21)
(0.000470475 0.000458684 -1.55355e-21)
(0.000693257 0.00125562 1.19235e-21)
(0.000693541 0.00124586 2.4352e-21)
(0.000973554 4.98391e-05 1.30469e-22)
(0.000390535 0.00052818 -8.55038e-22)
(0.00026585 0.000482058 0)
(0.000359232 0.00109894 6.53523e-24)
(0.000494196 0.000875015 -6.47189e-22)
(0.000623365 0.0010708 -4.28333e-22)
(0.000584067 0.00103013 9.64424e-22)
(8.71935e-05 2.05818e-05 0)
(0.000439259 0.000228862 1.13617e-21)
(0.000874942 0.000488804 1.10083e-21)
(0.00064485 0.0011139 0)
(0.00095071 9.02822e-05 -9.61273e-22)
(0.000524156 0.000896218 -4.82628e-22)
(0.000456229 0.000823025 3.02407e-23)
(6.6248e-05 1.34181e-05 -2.08948e-22)
(7.46953e-05 -1.41429e-06 2.55148e-21)
(0.000539545 0.000933886 -6.0796e-22)
(0.000391574 0.00110186 8.84042e-25)
(0.000614099 0.00108663 1.8019e-22)
(7.40116e-05 1.56264e-05 1.416e-21)
(0.000533061 0.000927607 -5.40223e-25)
(0.000604066 0.00104553 9.51083e-22)
(3.90557e-05 0.000210385 -2.49467e-22)
(0.000586627 0.000978087 -2.16167e-22)
(0.000622635 0.0001506 1.08538e-22)
(0.000728901 0.00133978 8.55252e-23)
(0.000594854 0.00105769 -4.24738e-24)
(0.000602403 0.000113964 -1.27054e-21)
(0.000391721 -1.55363e-06 -3.37279e-21)
(6.55504e-05 -4.1686e-06 1.01936e-21)
(0.000185098 0.000142137 -4.81095e-22)
(0.000762488 0.00130106 -9.59901e-22)
(0.000367047 0.000272341 3.72383e-21)
(0.000621067 0.00111733 0)
(4.74854e-05 0.000104094 -5.04734e-22)
(0.00045851 0.000824199 -1.5803e-21)
(0.000645949 0.0011136 -5.3922e-24)
(6.50403e-05 0.000504456 5.46139e-21)
(0.00112731 -0.000179853 -2.22826e-22)
(0.000644856 8.75317e-05 0)
(0.000496497 0.000889352 0)
(0.00051619 0.000889393 -7.04084e-22)
(0.00104899 -1.23773e-05 -4.44579e-22)
(0.000585081 2.95696e-06 8.34782e-22)
(0.000397463 0.00054029 2.38287e-22)
(0.000635057 8.08088e-05 0)
(6.30765e-05 6.37493e-05 -1.90655e-21)
(0.000462094 0.00106579 0)
(4.38314e-05 9.37596e-05 7.77906e-22)
(0.000643695 0.00111496 -8.96485e-22)
(0.00143381 0.00115106 -2.34349e-21)
(0.000574626 0.0010016 0)
(0.000491383 0.000841058 -1.2091e-24)
(0.00049389 0.000851547 0)
(0.000344274 0.000439122 0)
(0.000233002 0.000411733 0)
(0.000855961 0.00055631 -8.69377e-22)
(0.000499025 0.000859724 -6.13252e-22)
(0.000354329 0.000600698 -1.22871e-22)
(0.000333158 0.000490337 2.37487e-21)
(0.000573884 0.000975394 -1.82748e-22)
(0.000474715 0.000852062 7.43555e-22)
(0.000890322 0.000170244 2.22989e-25)
(0.000492755 0.00116803 6.87209e-22)
(0.000600391 0.00106739 -1.82634e-24)
(0.000623777 0.00123009 -4.557e-24)
(4.04161e-05 8.4136e-05 8.60941e-22)
(0.000618469 0.00107737 -1.91142e-22)
(4.61055e-05 0.000114172 4.37983e-22)
(4.92637e-05 -2.79917e-06 1.14678e-21)
(0.000671049 0.000609118 -2.69391e-22)
(0.00069818 0.00116992 -1.08785e-21)
(0.000578294 0.000960193 0)
(0.000213946 0.000395966 0)
(0.00033034 0.000264433 1.16327e-21)
(0.000595287 0.00107809 4.23234e-24)
(0.000966792 0.000100807 4.47253e-21)
(0.000575868 0.000986398 8.27574e-22)
(3.70358e-05 7.51237e-05 5.89654e-23)
(0.000331062 0.00055506 -1.04974e-21)
(0.000183472 0.000582131 8.0109e-22)
(0.000649207 0.00111358 -1.02401e-21)
(0.000208055 0.00033575 -3.88683e-23)
(0.000460385 -8.80838e-05 -2.16621e-21)
(0.000615957 0.00107743 -1.45777e-22)
(9.65047e-05 0.000966601 -1.16651e-22)
(0.000874496 0.000375616 0)
(0.000631627 0.00108807 0)
(0.00109275 4.58882e-05 1.19327e-22)
(0.000627171 0.00109697 0)
(0.000184832 8.34744e-05 6.42563e-22)
(1.82208e-05 0.000490896 0)
(3.39083e-05 6.73067e-05 4.83206e-23)
(0.000423963 0.000316205 7.04618e-22)
(0.000519618 0.000925138 0)
(0.000625948 0.00107953 0)
(0.000900281 0.000778972 -1.01027e-23)
(0.000176653 0.000112445 3.51884e-22)
(0.000563764 0.000971348 -8.3058e-23)
(0.000629708 0.00108781 -8.07642e-22)
(0.000599246 0.00103244 0)
(3.08589e-05 5.97406e-05 -4.12759e-22)
(0.000718774 0.00124426 3.7508e-22)
(0.00063787 0.00109049 -3.97132e-22)
(0.000468815 3.32915e-05 0)
(0.000642912 0.00110963 3.9736e-22)
(0.000260735 0.000336487 2.81799e-21)
(0.000513086 0.000731348 -1.21839e-21)
(0.000607381 0.00104148 1.26824e-21)
(0.000605207 0.00111719 -5.81585e-23)
(0.000522153 0.000917466 -3.85246e-22)
(5.87656e-05 5.20509e-05 -4.8021e-22)
(0.000579902 0.00109536 4.24609e-23)
(0.000630395 0.00111705 -4.01834e-22)
(0.000440332 0.000806986 1.27727e-21)
(2.82568e-05 5.32177e-05 4.23186e-22)
(7.5124e-05 0.000605304 -4.17549e-22)
(5.93608e-05 0.000139064 -1.07718e-21)
(0.000598386 0.00108525 -1.09708e-22)
(0.000629146 0.0010789 -3.72236e-22)
(6.66246e-05 1.68061e-05 -8.17671e-22)
(0.000190162 0.000591591 1.51472e-21)
(0.000587451 0.00102498 -9.64806e-22)
(2.59133e-05 4.71726e-05 -4.13349e-22)
(0.000611059 0.0010488 -2.77161e-22)
(0.000313377 0.000284631 1.46801e-21)
(2.3013e-05 4.05658e-05 5.93385e-22)
(0.00064005 0.00109614 3.80631e-22)
(0.000622742 0.00106999 0)
(0.000621582 0.00107018 -2.83476e-22)
(2.16423e-05 3.63334e-05 -9.72054e-23)
(4.29811e-05 -8.29055e-06 2.04213e-22)
(0.000515179 0.000619392 -7.36681e-22)
(0.000618339 0.00106449 -3.27966e-22)
(0.00104102 -1.30602e-05 4.78308e-22)
(0.000483671 0.000861483 -8.97235e-22)
(0.000181672 0.000128565 -1.06359e-21)
(0.000170262 0.000117372 1.12861e-22)
(0.00097685 0.000146926 0)
(0.000748396 0.000876101 0)
(1.97563e-05 3.21182e-05 -1.94538e-22)
(0.000507281 0.000909671 -1.16182e-22)
(0.000646959 0.00121755 -9.97654e-24)
(0.000758427 2.01061e-05 -1.22614e-22)
(5.78254e-05 -3.71054e-06 0)
(5.6265e-05 0.000125957 7.74352e-22)
(0.000495526 0.000851443 -9.99396e-22)
(0.000200911 0.0005868 0)
(0.000513554 0.000885344 0)
(1.68882e-05 1.3477e-06 5.01518e-22)
(0.000540581 0.000496953 -1.62146e-21)
(0.000615194 0.00107047 5.23515e-22)
(0.00051483 0.000883888 -5.80339e-24)
(0.00038449 0.000519557 -8.83248e-25)
(0.000679038 0.000539766 -1.48431e-24)
(0.000217214 0.000487845 5.50774e-22)
(0.000106248 5.93987e-05 -6.64142e-26)
(0.000643855 0.00111457 1.32046e-23)
(0.00125497 0.00111569 1.55147e-21)
(0.000123067 4.08658e-05 1.96011e-21)
(0.00065118 0.00141498 4.15806e-24)
(-6.01891e-05 0.00100495 2.94687e-24)
(2.62553e-06 -4.17162e-06 0)
(5.23997e-05 -2.93524e-06 -1.70012e-21)
(0.000459622 -0.000185275 -1.90778e-21)
(0.000602442 0.00102672 3.51255e-22)
(0.000889086 -0.000317956 0)
(0.000438846 0.000438839 1.02797e-21)
(0.000651581 0.00111792 0)
(0.000717999 0.00124245 0)
(0.00057802 0.000976564 1.93197e-22)
(0.000867767 0.0003565 -1.31863e-21)
(0.000393176 0.000847762 0)
(0.000130681 0.000191199 0)
(0.000687407 0.00124885 -1.17277e-21)
(8.66196e-05 2.56598e-05 -1.04145e-22)
(5.58711e-05 0.000999454 -1.16016e-21)
(0.000450197 0.00122797 -1.38445e-23)
(0.000521833 0.000901737 9.00382e-22)
(0.000631186 0.00108797 -3.98913e-22)
(7.44113e-05 -1.12404e-05 0)
(0.000651095 0.00111389 -2.08356e-21)
(0.0001103 7.10304e-05 9.39281e-22)
(0.000486709 0.000915679 -2.33337e-21)
(0.00061109 0.00108345 5.59495e-22)
(0.000563877 0.000276198 1.31045e-21)
(0.0010373 -2.80211e-06 -1.65574e-21)
(0.000543927 0.000942357 -4.42729e-22)
(0.00106278 -3.67457e-06 4.65312e-22)
(0.000633239 0.00108614 3.62845e-22)
(0.000462126 0.00102471 9.23468e-22)
(5.31442e-05 0.000434948 1.55808e-21)
(0.000707537 0.00124787 -2.57312e-22)
(0.001129 0.000667095 -7.45589e-22)
(0.000229368 0.000649342 6.44947e-22)
(0.000652832 0.000550908 1.49789e-21)
(0.00065952 0.00122344 0)
(0.000493717 0.000883277 -2.01422e-22)
(0.00067587 0.0010737 -1.45214e-23)
(0.000714088 0.00124254 1.84151e-22)
(0.000836195 0.000670065 2.46823e-21)
(0.000232955 0.000497618 0)
(0.000538113 0.00092946 0)
(0.000948364 -1.41512e-05 -1.23137e-21)
(0.000241929 0.000132973 -1.53177e-21)
(0.000487368 0.000588714 -7.3643e-22)
(4.60264e-05 4.21123e-05 -4.59327e-23)
(5.17018e-05 0.000723689 1.39256e-21)
(0.000355363 0.000273038 1.22944e-21)
(4.38712e-05 -4.74019e-06 0)
(0.000133421 0.000524219 1.13059e-21)
(0.000121965 7.58233e-05 1.76709e-21)
(0.000500715 0.00109108 -1.31283e-23)
(0.000589754 0.00103291 -2.92455e-23)
(5.46324e-05 0.000488937 4.81318e-22)
(1.35293e-05 -1.29768e-06 -3.89336e-22)
(0.000375573 2.48568e-06 0)
(0.000626311 0.00107259 -2.33696e-22)
(0.000564913 0.000966376 -1.7365e-22)
(0.000635898 0.00111674 2.76908e-24)
(2.47044e-05 4.68017e-07 0)
(4.596e-05 9.92207e-05 -7.09869e-22)
(0.000266763 0.000530995 2.1357e-21)
(0.00111205 0.000602801 -2.15405e-24)
(0.000556618 0.000731307 -1.75664e-21)
(0.000217195 0.000487902 0)
(0.000749012 0.00126663 1.84305e-22)
(0.000782963 0.000416201 0)
(0.00059451 0.00102065 0)
(0.000486 0.00126117 2.64389e-23)
(0.000543296 0.000951611 -6.60297e-22)
(0.000931056 0.000146612 2.04547e-21)
(0.000580257 0.000992613 7.46546e-22)
(0.000176977 0.000261733 -1.8188e-22)
(0.000334244 0.000579891 -7.58804e-22)
(0.000623704 0.00107087 1.86179e-22)
(0.000462701 0.0010847 1.02201e-21)
(3.91211e-07 -1.08331e-06 -2.14465e-22)
(0.000645774 0.000225076 -5.12027e-22)
(0.000110297 0.000538034 3.52226e-22)
(6.18268e-05 -0.00019303 0)
(0.000615719 0.00114635 1.39612e-22)
(0.000113291 7.86051e-05 -2.20869e-21)
(0.000622893 0.00106851 1.22443e-22)
(4.20377e-05 8.88334e-05 -5.39658e-23)
(0.000585146 0.00101903 1.00352e-23)
(0.000613115 0.00102674 6.77562e-22)
(0.000300196 0.000579119 -1.04657e-21)
(0.000523425 0.000916453 8.28673e-24)
(0.000362155 0.000403286 2.27275e-21)
(8.27297e-06 0.000442375 -4.94533e-22)
(0.000616216 0.00107521 -2.06245e-22)
(9.86193e-05 9.60766e-05 -1.07317e-21)
(0.000348872 4.9527e-05 -1.07111e-21)
(0.000608417 0.00112597 1.08934e-22)
(0.00028795 0.000498701 -1.92649e-21)
(0.000211322 0.000753722 0)
(0.00070257 0.00125833 2.63743e-22)
(0.000629853 0.00108442 0)
(0.000587381 0.0010842 4.7197e-23)
(5.09588e-05 4.48872e-05 0)
(0.000510725 0.000880687 0)
(9.52911e-05 3.11013e-05 0)
(0.000652661 0.00026538 0)
(0.000433147 0.000556556 1.87298e-23)
(0.000644363 0.00111406 0)
(0.000602903 0.00108287 0)
(8.46925e-05 9.58666e-05 1.79202e-21)
(0.000468217 -0.000267707 2.10931e-21)
(3.87449e-05 7.95501e-05 -8.50737e-22)
(0.000642152 0.00115174 -2.34131e-22)
(1.39837e-06 7.46747e-06 0)
(0.000921266 0.000144112 -1.92189e-21)
(0.000623067 0.00112274 0)
(0.000696185 0.000347068 1.24818e-21)
(0.000500554 0.000850688 0)
(0.000671882 0.00117641 9.67917e-22)
(0.000530246 0.000902875 1.07602e-21)
(0.000363925 0.000530448 -2.82822e-21)
(0.000648354 0.00110035 -1.48783e-21)
(0.000639588 0.00117894 -6.96871e-23)
(-0.000411218 0.00044469 -3.14928e-21)
(0.000651268 0.00113732 -6.20532e-22)
(0.000533385 0.000921345 1.35739e-21)
(0.000563431 0.000976663 -9.80038e-22)
(7.10108e-05 -0.000210021 3.81595e-22)
(0.000801912 0.000404311 -1.47794e-22)
(0.000520484 0.000900925 0)
(3.62505e-05 7.0869e-05 9.96775e-23)
(0.000305559 0.000291797 -3.49916e-21)
(0.000104004 0.000102613 1.68106e-24)
(0.000590151 0.00101507 3.87527e-22)
(0.000540559 0.000923543 0)
(0.000755935 -0.000253769 -1.05418e-21)
(0.000526339 0.000594652 6.91836e-22)
(0.000566067 0.000976743 2.00119e-21)
(0.000676179 0.00154386 -6.57695e-24)
(0.000589967 0.0001299 9.51274e-22)
(0.000539761 0.000931523 -1.3877e-21)
(0.000546472 0.000963907 -3.81431e-23)
(0.000580661 0.00100492 -8.14116e-23)
(0.000303431 0.000562985 8.37096e-22)
(3.25194e-05 6.3425e-05 -1.00317e-22)
(0.000570452 0.000981249 -4.5221e-24)
(0.000862501 0.000339159 9.54939e-22)
(0.000303584 0.000548695 2.10754e-22)
(0.000564072 0.000971904 0)
(0.00098136 7.25563e-05 -4.53216e-22)
(0.000177287 0.000407708 2.1125e-22)
(0.000827828 0.000585753 1.45839e-21)
(0.000174099 0.000251868 -7.22036e-22)
(3.18384e-05 0.000402218 -8.71135e-22)
(0.000899709 9.08005e-05 7.08622e-23)
(0.000983776 0.000161947 5.17873e-22)
(0.000561088 0.000967289 6.94519e-24)
(0.000533788 0.000920054 0)
(2.90356e-05 0.000814515 4.48025e-22)
(7.82889e-06 2.04891e-06 9.29606e-22)
(0.000602656 0.0010813 0)
(0.000650938 0.00112074 0)
(0.000963919 8.33712e-05 -9.94901e-22)
(7.45068e-05 2.0099e-05 -2.95345e-21)
(0.000199535 0.000250739 4.0112e-22)
(2.95185e-05 5.64178e-05 -2.65757e-23)
(0.000559711 0.000966169 -1.10457e-24)
(0.000513468 0.000867764 2.7645e-22)
(0.000620755 0.00106965 0)
(0.00053512 0.000864207 4.98543e-22)
(0.000511046 0.00088707 -2.46085e-22)
(0.000590375 0.00113818 4.02149e-23)
(0.000554629 0.000461866 -2.10814e-21)
(0.000567102 0.000967669 5.96368e-24)
(2.16193e-05 -1.52883e-06 -1.77512e-21)
(0.000558667 0.000962332 -1.65231e-21)
(0.000297303 0.00051855 -7.21027e-26)
(0.000639134 0.00111643 -1.02103e-22)
(0.000620238 0.00110885 9.78118e-22)
(0.000325777 0.000461709 -1.6045e-21)
(2.36071e-06 1.5024e-05 -5.89498e-23)
(0.00055274 0.000953329 5.83434e-22)
(0.000545478 0.000870483 8.41797e-22)
(2.70386e-05 5.01708e-05 4.30387e-22)
(0.000539073 0.000937344 -9.23892e-22)
(0.00056037 0.000979155 6.50167e-24)
(0.000956339 8.07842e-05 2.91272e-21)
(0.00054921 0.000947728 6.09388e-22)
(0.000598124 0.00102238 5.75458e-22)
(0.000513979 0.000869113 6.83878e-22)
(0.00136623 0.000405217 0)
(0.000507987 0.000881802 1.14443e-21)
(0.00180073 0.000233151 0)
(0.00087202 0.000729202 -1.28463e-21)
(0.000627482 0.00107339 2.78744e-22)
(0.000185342 0.000534579 -4.76509e-21)
(0.00141116 0.000993177 6.76205e-22)
(0.000520091 0.000912465 -2.48719e-21)
(0.00020362 0.000156922 2.15878e-21)
(0.000395421 9.95438e-06 0)
(0.000290659 0.000714823 5.99053e-24)
(3.50379e-05 0.00036749 0)
(0.000586126 0.0010091 -8.0354e-22)
(1.4556e-06 -1.35958e-05 8.71626e-22)
(2.46024e-05 4.4928e-05 2.12203e-22)
(0.000631493 0.00112047 1.58406e-22)
(0.00076697 0.0013946 5.55139e-23)
(0.000298014 0.000499807 -9.55275e-22)
(0.000491912 0.000856517 6.90866e-22)
(0.00102433 -0.000124736 -2.37384e-22)
(0.000644457 0.00110123 0)
(0.000695257 0.000882541 1.72228e-21)
(0.00102388 -4.56406e-07 7.03799e-22)
(1.64078e-06 -8.69932e-06 -5.09592e-22)
(4.81367e-05 -5.23922e-06 -1.76284e-21)
(0.000524076 0.000911589 0)
(0.000713497 0.00125721 5.27108e-22)
(0.000692522 0.00127495 -3.90169e-24)
(0.000293862 0.000224956 1.22121e-21)
(0.000141938 0.000687429 -2.57204e-22)
(2.28844e-05 3.81487e-05 0)
(0.000884806 0.000125223 -4.86593e-22)
(0.000610201 0.00029966 -1.44144e-21)
(0.000561554 0.000973371 -9.90337e-22)
(0.000558135 0.000956125 -4.98193e-22)
(0.000581679 0.00101278 9.43462e-22)
(0.000658872 0.00117343 -7.72414e-24)
(0.000508085 0.000876329 -2.2224e-22)
(0.000780388 0.00136883 1.16389e-21)
(0.000544923 0.000941135 1.29815e-22)
(0.00021129 0.000567631 0)
(0.000469175 0.000732646 0)
(0.000523093 0.000916604 0)
(0.000270107 0.00039787 0)
(0.000593037 0.00103311 -3.58721e-22)
(0.0008223 8.85839e-05 -1.20249e-25)
(0.000181815 0.000525356 2.07e-21)
(0.000468376 0.000191297 -2.01446e-25)
(0.000275355 0.000521048 6.16409e-22)
(0.000462082 0.000870738 5.6239e-26)
(0.000566383 -3.99729e-05 2.84494e-21)
(0.000706959 0.00125683 -1.48136e-22)
(0.000542807 0.000950482 6.64308e-22)
(0.000546568 0.00048544 1.43018e-21)
(0.000658796 0.0011677 0)
(0.000193644 0.000603343 0)
(0.00062332 0.00107314 -7.03063e-22)
(0.000448119 0.000493342 -2.0496e-21)
(0.00102223 -0.000113595 -2.29208e-22)
(0.000472756 -0.000411049 -3.10764e-24)
(0.000629252 0.00111683 0)
(2.3513e-05 9.50581e-07 -3.87003e-22)
(0.00012998 0.000514272 5.76217e-22)
(0.000519777 0.000900173 8.24031e-22)
(0.000782428 0.0013689 0)
(0.000468478 0.00134604 -2.49484e-23)
(0.000228886 0.000256177 5.75103e-22)
(0.000351919 0.00126696 -6.7139e-22)
(0.00101643 -4.98868e-05 4.79018e-22)
(0.000384851 0.000587859 0)
(0.000709319 0.0012532 1.5274e-22)
(0.000784154 0.00136824 0)
(0.000778075 0.00136752 1.12607e-21)
(0.000497369 0.00086555 1.23243e-21)
(0.000308882 0.0005324 1.01651e-21)
(0.000554639 -2.83425e-05 3.52982e-21)
(0.00055348 0.000947964 1.21548e-21)
(1.52718e-06 -2.08668e-05 -6.91366e-24)
(0.000259103 0.000729251 0)
(0.00028858 0.000309971 1.09922e-21)
(0.000774359 0.00136526 -1.07305e-21)
(2.31846e-06 2.55672e-05 -1.86673e-21)
(0.00018682 0.000603904 -3.19576e-25)
(0.00058231 0.00100398 -1.25019e-21)
(0.000444045 0.0013126 0)
(0.000605864 0.00104793 -9.39813e-22)
(0.000622296 0.0010631 4.76453e-22)
(0.000524342 0.000917069 5.68436e-24)
(0.000620625 0.0010704 1.23066e-22)
(0.000558285 0.000398385 8.32055e-22)
(0.000458693 0.000922533 -7.95506e-22)
(0.000345584 0.000268298 -3.07179e-21)
(0.000533523 0.000922305 2.0241e-21)
(1.61579e-06 -2.50242e-05 -8.72572e-22)
(0.000619003 0.00108004 6.98127e-23)
(0.000779463 0.000581019 -2.02387e-21)
(0.000715541 0.00124333 -5.15941e-24)
(0.000538148 0.00091152 -2.05541e-22)
(0.000536461 0.000949623 2.87282e-22)
(1.49425e-06 -1.70993e-05 0)
(0.000600154 0.00103664 3.1277e-22)
(0.00052435 0.000925147 3.15587e-22)
(0.000986701 0.000122595 -1.99066e-21)
(0.000569507 0.000121972 -2.36859e-23)
(0.000671001 0.00117809 0)
(0.000332037 0.00105393 -1.34753e-23)
(0.000561071 0.000991386 4.9576e-22)
(0.000588934 0.00108273 0)
(0.000647358 0.00111346 1.00225e-21)
(0.000785688 0.00136729 -1.16131e-21)
(5.955e-05 -6.55237e-07 -1.60873e-21)
(0.000143789 0.000389781 -1.4128e-21)
(0.000523419 0.00114803 6.23091e-24)
(1.14291e-05 5.5324e-05 -1.02466e-21)
(0.000370285 0.000225857 1.13859e-25)
(0.000649827 0.00116117 2.24177e-22)
(1.39182e-06 -1.02888e-05 7.33092e-22)
(0.000627272 0.00107699 0)
(0.000242075 0.000815655 0)
(1.79973e-06 -3.19078e-05 1.78122e-21)
(0.000986282 4.51647e-05 -2.16692e-22)
(0.000218106 0.000782073 1.76953e-23)
(0.000568705 0.000955199 -6.10761e-24)
(0.00039363 0.000136223 9.81268e-22)
(0.000821499 0.000856594 0)
(0.000715042 0.00124568 0)
(0.00047445 0.000828303 0)
(0.000716727 0.00124439 7.29326e-24)
(0.000245381 0.00041229 6.48628e-22)
(0.000787103 0.00136617 1.08448e-23)
(5.3657e-05 -4.9802e-07 0)
(0.000565053 0.000972039 0)
(0.000641146 0.00109696 5.23128e-22)
(0.000615763 0.00144995 -3.939e-23)
(0.000453481 0.000996342 -1.97971e-21)
(0.000636447 0.00111894 -2.28695e-22)
(2.13713e-06 -4.0083e-05 8.99206e-22)
(0.0004884 0.000870365 4.28103e-22)
(0.000523317 0.00091216 0)
(0.000843486 0.000113957 -1.62249e-21)
(0.000374553 0.000644546 1.79704e-21)
(0.000627797 0.00106005 -4.17637e-22)
(0.00064101 0.00111613 -1.18043e-22)
(7.77286e-05 7.00367e-05 -8.95439e-22)
(0.000406785 0.000139091 0)
(0.00032023 0.00113702 -1.7199e-21)
(-0.000347373 0.00105814 -2.45687e-21)
(0.000306186 0.000487927 1.63525e-21)
(0.000646011 0.00112755 9.05121e-22)
(0.000721724 0.00124758 -1.09836e-21)
(0.000498905 0.000844416 -2.50831e-22)
(2.44173e-06 -4.97944e-05 -1.79011e-21)
(3.10785e-05 0.000382291 0)
(0.000694272 0.0012674 0)
(0.000295605 0.000493322 -1.13027e-23)
(6.7722e-05 6.13063e-05 -3.57973e-23)
(0.000581383 0.00100132 -4.30541e-22)
(0.000534251 0.000923313 -1.36486e-21)
(0.000220014 0.000499873 0)
(1.14279e-05 0.000328945 0)
(2.77568e-06 -5.74623e-05 7.2005e-24)
(0.000567026 0.000979032 -1.18548e-21)
(7.4696e-05 6.66145e-05 0)
(0.000176387 8.15609e-05 4.28404e-22)
(0.000999306 0.000114679 0)
(0.000158892 0.000272272 -2.32388e-21)
(0.000532804 0.000918647 -5.46432e-22)
(0.000620811 0.00106861 -2.47167e-22)
(6.74278e-05 6.57569e-05 0)
(0.000543015 0.000934052 -6.3652e-22)
(0.000262161 0.000420923 0)
(0.000183391 0.000586285 1.04561e-21)
(3.23369e-06 -6.61621e-05 9.06567e-22)
(0.000368801 0.000579189 1.43636e-21)
(0.000781533 0.0013643 1.18694e-21)
(0.000335857 4.22464e-05 -1.97432e-26)
(0.000404674 -0.000547933 0)
(0.000566793 0.000980721 0)
(0.000723168 0.00124769 6.32253e-22)
(0.000110696 0.00039369 0)
(0.000601562 0.00104715 -6.38846e-22)
(9.01159e-05 0.000393008 9.74677e-22)
(0.000693445 0.00126012 -1.04285e-22)
(0.000609943 0.00105624 -3.21761e-22)
(0.000574147 0.00100606 -6.93693e-23)
(0.00053361 0.000921363 -5.99981e-22)
(0.00061516 0.00104981 2.07861e-21)
(0.000616508 0.00068437 1.4749e-21)
(4.02744e-06 -8.17425e-05 0)
(0.000773241 0.00130723 -1.72713e-21)
(0.000557733 0.000597797 1.47266e-21)
(0.000496106 0.000894016 -3.93048e-22)
(9.92788e-05 0.000421325 6.58335e-23)
(0.000505161 0.000871745 -8.73507e-22)
(0.00040956 0.000323715 0)
(0.000652909 0.00117603 1.09712e-22)
(0.000570823 0.000969955 -7.26321e-23)
(7.45068e-05 5.84672e-05 -5.5217e-22)
(0.000498866 0.000837666 -5.38119e-22)
(0.000605591 0.00104854 1.18674e-21)
(0.000578224 0.00100672 9.3494e-22)
(0.000367345 0.000412834 0)
(0.000687275 0.00122481 1.30448e-21)
(2.33177e-05 -1.52148e-06 -5.96431e-23)
(0.000559504 0.000958229 0)
(0.000217236 0.000265665 -3.51245e-25)
(0.000779035 0.00137978 0)
(0.000779292 0.00130596 8.53608e-22)
(0.000648452 0.00112379 5.68482e-22)
(0.000235932 0.00043983 -1.93603e-21)
(0.000517509 0.000897537 -5.05513e-24)
(2.45295e-05 -0.000155241 -9.03615e-22)
(0.000526363 0.000496049 8.77455e-22)
(0.000479051 0.000839665 5.30961e-24)
(0.000146349 0.000398792 9.82628e-22)
(0.000539384 0.000916354 2.30393e-22)
(0.000277718 0.00038958 -2.02647e-21)
(1.71595e-05 -0.000114636 1.78963e-21)
(0.0013548 9.39959e-05 2.78352e-22)
(0.000779328 0.00138185 -5.79964e-24)
(2.04021e-05 -0.000133081 0)
(0.000333411 0.000502093 -1.04358e-21)
(0.0009971 0.000409375 1.36822e-22)
(0.000601965 0.000820842 -1.45176e-21)
(0.00121819 0.000377198 -5.65853e-22)
(0.000423307 0.00124819 8.82627e-22)
(0.000487809 0.000875325 -4.9629e-22)
(0.000552855 0.000956418 -1.66948e-23)