/*--------------------------------*- C++ -*----------------------------------*\
  =========                 |
  \\      /  F ield         | OpenFOAM: The Open Source CFD Toolbox
   \\    /   O peration     | Website:  https://openfoam.org
    \\  /    A nd           | Version:  8
     \\/     M anipulation  |
\*---------------------------------------------------------------------------*/
FoamFile
{
    version     2.0;
    format      ascii;
    class       volVectorField;
    location    "7.2";
    object      U;
}
// * * * * * * * * * * * * * * * * * * * * * * * * * * * * * * * * * * * * * //

dimensions      [0 1 -1 0 0 0 0];

internalField   nonuniform List<vector> 
4280
(
(3.2105e-05 1.51726e-05 -6.99622e-23)
(0.000652124 0.00111485 2.27612e-22)
(1.79979e-05 3.11417e-05 -1.01146e-21)
(0.000308979 0.000401539 -6.93242e-22)
(0.000538939 0.000949144 3.62114e-22)
(0.000561073 0.00100825 0)
(0.000550371 0.000923618 0)
(0.000620372 0.00106959 1.98081e-22)
(0.00031509 0.000555288 -4.36102e-22)
(0.000572949 0.00108033 1.25062e-22)
(3.90095e-05 -3.21632e-08 4.49309e-24)
(0.000672966 0.00125354 -3.21115e-22)
(3.60029e-05 8.2371e-05 -1.03721e-21)
(0.000587921 0.000458545 -1.32504e-21)
(0.000333234 0.000595501 -3.61823e-22)
(0.000628645 0.00108134 -1.90872e-22)
(0.000461553 0.000840217 4.37742e-22)
(0.000328109 0.00104556 -6.24028e-22)
(0.000190554 0.000763991 1.62299e-22)
(0.000620889 0.00107225 0)
(3.47667e-05 -2.6141e-06 -3.46378e-25)
(0.000690445 0.00125521 0)
(4.03566e-05 -6.79386e-05 5.73182e-22)
(0.000709279 0.00124153 0)
(0.00058577 0.00103617 -5.54097e-22)
(0.000507625 0.000872013 -8.31925e-23)
(0.000696215 0.00125244 0)
(0.000577623 0.00100492 -3.42104e-22)
(0.000606547 0.00105754 -2.53988e-22)
(0.000466975 0.000969362 2.96163e-22)
(0.000547925 0.000950731 -7.50878e-22)
(0.00048063 0.00112114 0)
(0.000512627 0.000913882 -4.55784e-22)
(0.000490579 0.00089035 -8.81524e-22)
(3.54616e-05 0.000321688 8.23158e-22)
(0.000569671 0.00101375 5.85104e-22)
(0.000725178 0.00123915 -1.29884e-23)
(0.000451281 0.000842652 6.42387e-22)
(0.00070179 0.00130555 -1.36542e-22)
(0.000573937 0.000999497 5.5886e-24)
(0.000677565 0.000594476 2.38984e-22)
(0.000620489 0.00130509 -4.46066e-22)
(0.000579235 0.000801726 0)
(0.000564328 0.000903609 0)
(0.000529599 0.000971342 -1.71238e-22)
(0.000502806 0.000916707 0)
(0.000927156 0.0011683 -1.80889e-22)
(0.0006195 0.00109244 -2.01064e-22)
(0.000545262 0.000946219 9.28819e-24)
(0.000879703 0.0014826 3.58953e-22)
(0.000368016 0.000663622 0)
(0.000628089 0.0010779 0)
(0.000557481 0.000975351 -2.48573e-22)
(9.18237e-05 0.000692791 -7.75246e-22)
(0.000153153 0.000629768 -3.3105e-22)
(0.000627493 0.00108102 1.81293e-22)
(9.23374e-05 -0.000401856 -2.5403e-22)
(0.000689429 0.00122251 -3.90756e-22)
(0.00052035 0.000899327 -5.96084e-24)
(0.000619284 0.00109266 1.98804e-22)
(0.000571092 0.00099279 5.01364e-24)
(0.000612562 0.00107385 3.04878e-22)
(0.000684625 0.00122752 8.70978e-22)
(0.000566248 0.00101129 -8.62425e-22)
(0.000571866 0.000990471 7.27777e-22)
(0.000711455 0.00125313 0)
(0.000812642 0.000819111 0)
(0.000169193 0.000605633 -4.69076e-22)
(0.000569708 0.00100287 -1.77106e-22)
(0.000619964 0.00108545 -1.84077e-22)
(0.000521249 0.000902937 -1.12631e-22)
(0.000619465 0.001084 -2.58688e-22)
(0.000721647 0.00123981 -2.3092e-22)
(0.000689008 0.00120758 4.39073e-22)
(0.000832781 0.000440521 4.65096e-26)
(0.000197396 0.000738158 -8.64872e-22)
(0.000359488 0.000632344 0)
(0.000522542 0.000933602 0)
(0.000622862 0.00107391 5.81912e-24)
(0.0002147 0.000841016 -2.2995e-22)
(0.000567539 0.00108198 5.14207e-23)
(0.00070465 0.00125278 5.82322e-23)
(0.000362304 3.69294e-05 -1.73269e-21)
(0.000547025 0.000951591 -5.08337e-24)
(0.000549081 0.000954069 7.53242e-22)
(0.00090359 0.000852212 -8.80602e-22)
(0.00068285 0.00126743 1.35618e-22)
(0.000505703 0.000881511 1.05955e-22)
(0.000221867 0.000884073 -4.38047e-22)
(0.000338398 0.000985906 0)
(0.000714489 0.0012552 2.55215e-22)
(0.000318821 0.00100152 1.51268e-21)
(0.000468262 0.000913286 1.76695e-23)
(0.000505656 0.000888077 -1.66191e-22)
(0.000514269 0.000908437 0)
(0.000529703 0.000892425 3.24834e-22)
(0.000768654 0.00137745 0)
(0.000571339 0.000999918 -1.94129e-22)
(0.00067341 0.00113361 4.52439e-24)
(0.000518464 0.000897027 -7.55831e-22)
(0.000570453 0.000990464 -4.59304e-22)
(0.000659424 0.00129607 7.17174e-24)
(0.000712594 0.00125293 0)
(0.000524968 0.000911522 -3.08994e-22)
(0.000619699 0.00108935 1.79934e-22)
(0.000566054 0.000986519 -4.78235e-24)
(0.000534578 0.000917403 -4.64493e-22)
(0.000631925 0.00113595 -8.10201e-22)
(0.000346981 0.000618329 0)
(0.000383734 0.000699768 0)
(0.000287574 0.000745063 5.2962e-22)
(0.000527654 0.00090798 5.24659e-22)
(0.000547438 0.000949124 -7.58953e-22)
(0.000495728 0.000806705 -5.33973e-22)
(4.31503e-05 -2.42596e-06 -4.53703e-24)
(0.000524404 0.000904443 0)
(8.48103e-05 -0.000203583 -1.09869e-21)
(0.000529265 0.000944287 0)
(0.000549938 0.000725272 6.2038e-22)
(0.000561929 0.000432079 0)
(0.000419846 0.000914599 -2.96695e-22)
(0.000508923 0.000902656 1.3495e-22)
(0.000705706 0.00124069 3.0945e-22)
(0.000528995 0.000904853 2.72051e-22)
(0.000516527 0.000929614 0)
(0.000473151 0.000997969 4.30018e-22)
(0.000395398 0.000699749 0)
(0.000508321 0.000939303 -2.09118e-22)
(2.34497e-05 0.000234009 1.43066e-22)
(0.000786748 0.00141027 -3.61143e-23)
(0.00027053 0.000483234 -3.69067e-22)
(0.00065014 0.00114418 2.22899e-22)
(0.000596655 0.00107948 1.26347e-22)
(0.000608394 0.0010359 -2.99608e-22)
(0.00052014 0.000934207 1.091e-21)
(0.000189864 0.00119788 0)
(0.000715578 0.00124283 0)
(0.000816754 0.00136181 1.06512e-25)
(0.00027035 0.000476468 -2.00718e-22)
(0.000716907 0.00125472 -5.25921e-24)
(0.000532147 0.00092097 -7.60019e-24)
(0.00049492 0.000883265 0)
(0.000249836 0.000458274 1.56169e-22)
(0.000557078 0.000984928 0)
(0.000542673 0.000941461 -4.09712e-22)
(0.000628847 0.00107174 1.29201e-21)
(0.000500896 0.000141722 5.11767e-22)
(0.000627144 0.00114837 3.6989e-24)
(0.000426349 0.000613824 0)
(0.000538151 0.000931431 0)
(0.000333732 0.000880532 0)
(0.00159442 0.000126416 0)
(0.000584647 0.00102876 -3.05012e-22)
(0.000500809 0.000583108 0)
(0.000365179 0.00118963 -8.96022e-24)
(0.000715479 0.00125556 -9.2104e-24)
(0.00065641 0.00079818 0)
(0.000558638 0.000948333 2.97752e-22)
(0.000521289 0.000885336 4.32031e-22)
(0.000262412 0.000464506 0)
(0.000616247 0.00103003 0)
(0.000616174 0.00127144 8.44768e-22)
(0.000500165 0.000113783 7.80507e-22)
(0.000422929 0.00105235 -9.74766e-22)
(0.000586159 0.00132767 0)
(0.000695225 0.000943141 1.48884e-23)
(0.000719681 0.00125498 1.65578e-22)
(0.000593511 0.00100304 7.62217e-24)
(0.000626837 0.00107459 2.13743e-22)
(0.000723883 0.00125824 3.22015e-23)
(0.000541234 0.00091025 0)
(0.00057777 0.00104168 1.01538e-22)
(0.00054573 0.000944691 4.82717e-24)
(0.000344762 0.00161679 -3.69391e-23)
(0.000996689 0.000417475 -8.34058e-22)
(0.000561447 0.00108518 5.94528e-24)
(0.000912747 0.000397194 0)
(0.00021621 0.00057109 7.43983e-22)
(0.000577663 0.00103768 -7.04754e-23)
(0.000622161 0.00106691 -2.2913e-22)
(0.000601741 0.000695996 -6.34644e-22)
(0.000792143 0.000742027 3.40098e-22)
(0.000156112 0.000738681 -6.47717e-22)
(0.000775902 0.00143065 -4.2936e-22)
(0.000982712 0.00150567 3.93082e-22)
(0.000540372 0.000954004 0)
(0.00051085 0.00092592 9.96888e-24)
(0.000816792 7.52668e-05 -8.88834e-23)
(0.00068796 0.00123414 2.85774e-22)
(0.000507404 0.000929794 -3.12586e-23)
(0.000210371 0.000619464 1.06286e-22)
(0.000465968 0.000999678 0)
(0.000546378 0.00094145 -9.50036e-24)
(0.00043842 0.000693762 -2.55286e-23)
(0.000572383 0.00103892 -5.08032e-23)
(0.000594471 0.00110709 -7.18626e-22)
(0.000599425 0.00103145 0)
(0.000653124 0.00111236 -4.23389e-22)
(0.000727407 0.00123852 0)
(0.000788385 0.0014197 -5.20283e-22)
(0.000486423 0.000709783 -4.52099e-24)
(0.000934411 0.000895551 -6.28213e-22)
(0.000503424 0.000891008 0)
(0.000635801 0.00114835 0)
(0.000654109 0.00113683 -5.76471e-22)
(0.000690338 0.00124741 -1.9668e-22)
(0.000528912 0.000914262 8.52835e-22)
(0.000699326 0.00124712 -2.38232e-22)
(0.000531029 0.000930355 -3.72733e-22)
(0.000689475 0.00119654 3.39833e-22)
(0.000706668 0.00122038 -7.28285e-22)
(0.000277441 0.000612823 -6.23451e-23)
(0.000337259 0.00059824 5.01694e-22)
(0.000428789 0.000567425 1.24299e-21)
(0.0006032 0.00104105 0)
(0.0005902 0.00110663 5.16282e-22)
(0.000980943 0.000174935 -6.89969e-22)
(0.000667713 0.00111511 -1.34802e-22)
(0.00070266 0.00125815 1.93608e-22)
(0.000311432 0.000777906 5.53913e-22)
(0.000531179 0.000895846 4.94899e-23)
(3.0987e-05 -1.35529e-05 -2.64816e-24)
(0.000519391 0.000902022 1.08046e-21)
(0.000852217 0.000857819 2.88903e-22)
(0.000265858 0.000657884 -5.02968e-22)
(0.000560716 0.000737415 0)
(0.00102922 0.00041081 6.26687e-22)
(0.000331763 0.00058323 -3.32396e-22)
(0.000575882 0.00101338 0)
(0.000529809 0.00103183 -5.61659e-22)
(0.00095702 7.12233e-05 3.00429e-22)
(0.000547488 0.000946446 -2.21386e-22)
(0.000887282 4.28919e-05 -1.59889e-22)
(0.00043952 0.000821236 -4.42238e-22)
(0.000540271 0.000929287 -7.88641e-22)
(0.000504895 0.000221548 -5.58495e-22)
(0.000503999 0.000920789 -5.45078e-22)
(0.000663631 0.00113482 -3.05676e-22)
(0.000360441 0.000865793 -8.43926e-22)
(0.000714024 0.00122782 -9.9425e-23)
(0.000617587 0.00107839 -1.55428e-22)
(0.000549602 0.000948652 4.20196e-22)
(0.000719596 0.00125668 -1.29066e-22)
(0.000468704 0.0010435 -8.76774e-22)
(0.00072829 0.00122006 -1.74295e-22)
(0.000588694 0.00115684 0)
(0.000427503 0.000740223 1.61702e-23)
(0.000804135 0.00140125 1.6489e-23)
(0.000585898 0.00102929 1.67738e-22)
(0.000512011 0.000908693 1.34334e-22)
(0.000414653 0.00121277 5.40034e-22)
(0.000513788 0.000889074 0)
(0.000554539 0.000979337 5.2725e-22)
(0.000505485 0.000875307 -1.83426e-22)
(0.000774773 0.00147127 3.05621e-23)
(0.000568656 0.00100917 -9.74214e-24)
(0.000475526 0.000520898 9.56689e-22)
(0.00053033 0.000911768 0)
(0.000624326 0.000461223 6.2789e-22)
(0.000854879 0.000993405 1.51769e-21)
(0.000656277 0.00123342 0)
(0.000382766 0.000245138 -6.07154e-22)
(5.0944e-05 0.000613349 0)
(0.000513057 0.000895969 1.00508e-22)
(0.00112165 0.000375095 -1.29078e-21)
(0.000587114 0.000995068 5.17941e-24)
(0.000493275 0.000856946 3.99975e-22)
(0.000738581 0.00126312 -3.47245e-22)
(0.000516265 0.000922047 0)
(0.000945211 0.000857899 9.35076e-22)
(0.000468615 0.00135273 2.73812e-23)
(0.000286202 0.000494178 2.85131e-22)
(0.000718951 0.00125722 -2.03992e-22)
(0.000552775 0.000941723 7.70403e-24)
(0.000543766 0.000919876 -3.80198e-22)
(0.000719261 0.00126022 -2.1531e-22)
(0.000716017 0.000587322 1.16636e-23)
(0.000618958 0.0010818 -3.44279e-22)
(0.000683847 0.00121662 -3.26932e-22)
(0.000771145 0.000355957 1.33007e-21)
(0.000712564 0.00123099 -1.11875e-21)
(0.000546743 0.000990436 -1.59745e-22)
(0.000519736 0.000930239 -2.12771e-22)
(0.000399809 0.000243121 0)
(0.000346615 0.000561004 7.62005e-22)
(2.12552e-05 -1.19973e-05 2.22717e-24)
(0.00102725 0.00143453 -1.15982e-21)
(0.000813094 0.00141083 0)
(0.000638703 0.00109433 1.32383e-22)
(0.000579881 0.00104121 2.2337e-22)
(0.000589948 0.00111883 -1.94892e-22)
(0.000709353 0.0015007 -2.91683e-23)
(0.000443554 0.000868994 0)
(0.00088544 0.00141115 -5.64646e-22)
(0.000318659 0.000536801 4.27447e-22)
(0.000435048 0.0008281 2.05664e-22)
(0.00046669 0.0009918 -4.12765e-23)
(0.000679581 0.00119566 9.14214e-22)
(0.000559213 0.000979609 1.61413e-22)
(0.00035085 0.00063559 1.6378e-22)
(0.000428575 0.000944594 9.50839e-22)
(0.000933239 0.000114692 -9.99481e-22)
(0.000717946 0.00124771 -9.02594e-22)
(0.00047042 0.000293062 4.07224e-22)
(0.000687922 0.00126301 2.36756e-23)
(0.000708345 0.00125145 1.83597e-22)
(0.000980319 6.19556e-05 0)
(0.000947353 9.05185e-05 2.50173e-23)
(0.000769063 0.00142315 1.2022e-22)
(0.000585717 0.00111673 8.8869e-23)
(0.000543221 0.000936293 -6.01041e-25)
(0.000698281 0.000102405 -1.68943e-21)
(0.000565195 0.000983128 2.4446e-22)
(0.000450506 0.000987199 8.74062e-22)
(0.000591416 0.000865077 5.43206e-22)
(0.000738987 0.00132297 -5.13049e-23)
(1.5976e-05 -2.11185e-05 8.33788e-24)
(0.000810106 0.00089588 4.29176e-22)
(0.000709033 0.00125921 -1.41528e-22)
(0.000587587 0.00104283 -5.26282e-23)
(0.000223021 0.000815157 1.20054e-24)
(0.0010321 0.000154397 0)
(0.000232887 0.000997143 1.37983e-23)
(0.000533088 0.000896256 0)
(0.00049293 0.000875622 1.62064e-22)
(0.00100907 0.00019154 0)
(0.000449125 0.000827236 -1.39181e-22)
(0.000267064 0.000760721 -7.59879e-22)
(0.000503729 0.000804397 3.71974e-22)
(0.000604681 0.00101126 5.23932e-22)
(0.000265579 0.000341921 1.96364e-21)
(0.000676848 0.00125298 -5.23701e-23)
(0.000539899 0.000956019 -5.45964e-22)
(0.000491163 0.000943498 6.30528e-22)
(0.000547436 0.00103565 3.69293e-22)
(0.000607846 0.00116024 0)
(0.000312755 0.000529936 -2.04588e-22)
(0.000662019 0.00114527 4.09169e-22)
(0.000796895 0.00142763 7.80218e-22)
(0.000719453 0.00126127 0)
(0.000102169 -8.77414e-05 1.34346e-21)
(0.000281637 0.000491323 0)
(0.000656006 0.0010793 9.564e-22)
(0.000529898 0.000882762 3.81567e-22)
(0.000578881 0.0010825 6.03392e-23)
(0.000720599 0.00125947 -2.53841e-22)
(0.000311782 0.000893894 3.78536e-22)
(0.000329893 0.000707671 -2.39989e-22)
(0.000593244 0.00108395 0)
(0.000640594 0.00106748 1.64045e-22)
(3.49307e-05 0.000798956 0)
(0.00025409 0.000810271 -3.40134e-22)
(0.0013495 0.000222102 0)
(0.000681656 0.0013008 -1.92707e-22)
(0.000758362 0.000107494 3.54161e-23)
(0.000667823 0.00118922 4.86123e-22)
(0.000727557 0.0012618 -1.36643e-22)
(0.000290409 0.000859754 4.3273e-22)
(0.000713148 0.00125758 -1.32876e-22)
(0.00064606 0.00107421 -1.63377e-22)
(4.47458e-05 0.000185414 4.69889e-22)
(0.000533343 0.00106704 6.4365e-24)
(0.000704302 0.00117251 -4.50366e-22)
(0.000537859 0.000923625 -2.88471e-22)
(0.000615628 0.00108897 0)
(0.000550481 0.00101431 0)
(0.000518473 0.000875204 -8.21325e-22)
(0.000521994 0.00101166 0)
(0.000325165 0.00053362 -6.49427e-22)
(0.000590771 0.00104703 -1.77927e-22)
(0.000577495 0.00106957 -3.05159e-23)
(0.000460529 0.000783346 2.6872e-22)
(0.0008124 0.00140594 -5.1365e-23)
(0.000346496 0.00064142 8.15139e-22)
(0.000539872 0.000935517 0)
(0.000491535 0.00107047 -2.86202e-22)
(0.00053955 0.000883486 3.24974e-23)
(0.000135284 0.000160497 0)
(0.00061636 0.00117915 6.72064e-23)
(0.00053567 0.00095166 3.23662e-24)
(0.000731857 3.85251e-05 2.48199e-24)
(0.000334576 0.000924682 5.64827e-24)
(3.4041e-05 1.63992e-07 8.85346e-22)
(0.000302288 0.000946622 3.54237e-22)
(0.000625187 0.00119771 -2.22498e-22)
(0.000729748 0.00139071 -6.09855e-22)
(0.000472547 0.000856936 -6.3086e-22)
(0.000567023 0.000966787 -3.56202e-23)
(0.000484408 0.000996415 0)
(0.000977972 0.000753242 5.34673e-22)
(-0.000166561 0.00104632 -4.04778e-22)
(0.000642708 0.00127266 0)
(0.000301975 0.000898964 -8.79297e-22)
(0.000491828 0.000511109 6.67901e-22)
(0.000588796 0.00105306 0)
(0.000644112 0.00107485 3.60901e-22)
(0.000642678 0.00114808 -5.79122e-23)
(0.000314004 0.00035426 -2.07265e-21)
(0.00043941 0.000434346 -1.41476e-22)
(0.00057953 0.00101178 -3.38166e-22)
(0.000379605 0.000884031 3.27181e-22)
(0.000582207 0.00101479 -1.90961e-22)
(0.000643223 0.00115082 -1.42377e-22)
(0.000598988 0.00108538 0)
(0.000744919 0.00122147 -3.92097e-24)
(0.000336499 0.000965004 0)
(0.00065033 0.00114478 4.20885e-24)
(0.000622176 0.00104882 1.58125e-22)
(0.000586169 0.00104294 -2.5531e-22)
(0.000780299 0.0014273 4.23377e-22)
(0.00028543 0.000495485 2.0309e-22)
(4.46786e-05 -5.7944e-07 3.36404e-23)
(0.000420636 0.00116551 -4.86744e-22)
(0.000537827 0.000902998 3.55288e-22)
(0.000733485 0.00123717 4.09539e-24)
(0.000730548 0.0015364 0)
(1.96648e-05 -3.05431e-05 -5.67274e-22)
(0.000472205 0.000821107 -7.54021e-22)
(0.000642525 0.00121292 0)
(0.000585524 0.000826919 -4.26773e-22)
(0.000515355 0.000972573 0)
(0.000355791 0.000840436 7.33357e-22)
(0.000633271 0.00109833 3.59292e-22)
(0.000843627 0.00114574 -4.25478e-22)
(0.000581519 0.000987112 0)
(0.000803796 0.00142753 6.05283e-22)
(0.000649694 0.00108304 1.6754e-22)
(0.000530258 0.000996121 2.68644e-22)
(0.000544833 0.000922272 -4.56571e-22)
(0.00055966 0.00105895 -2.12532e-22)
(0.000741865 0.00125607 1.74432e-22)
(0.00022946 0.000842099 -1.35929e-21)
(0.000260998 0.000858666 -4.01011e-22)
(0.00046999 0.000867531 -4.08499e-22)
(0.000731967 0.000109783 -3.2605e-22)
(0.000644628 0.00049186 1.66273e-21)
(0.000907762 0.000206033 -1.42997e-22)
(0.000586915 0.00102053 -5.58958e-24)
(0.000384274 0.000553141 -7.27099e-22)
(0.000857164 0.000479721 1.23424e-21)
(0.000727672 0.00125907 -3.8348e-22)
(0.000520448 0.000892588 0)
(0.000541353 0.000982113 6.37094e-22)
(0.000336415 0.000858631 0)
(0.000706746 0.00121764 -3.00487e-22)
(0.000674917 0.00122675 -3.89766e-24)
(0.000647631 0.000640376 -8.9264e-22)
(0.000474663 0.000911688 4.74861e-22)
(0.000656313 0.000721984 -8.13241e-22)
(0.000481984 0.000964323 -3.05929e-22)
(0.000415456 0.000502861 2.03128e-22)
(0.000629941 0.000662678 6.34363e-22)
(0.000808745 0.001415 1.70794e-23)
(0.000599429 0.000985832 1.74072e-23)
(0.000520231 0.00114486 0)
(0.000378962 0.000951202 5.97276e-22)
(0.000584746 0.00105906 -1.02406e-21)
(0.000403525 0.00100666 -6.79084e-22)
(0.000644171 0.000738134 9.65137e-22)
(0.000211824 0.000471039 4.18041e-22)
(0.000557343 0.00134024 -2.67737e-22)
(0.00037621 0.000179431 0)
(0.000637628 0.000793204 -2.52045e-21)
(2.08558e-05 2.72579e-05 -4.25122e-22)
(0.00038746 0.000646334 -1.32189e-22)
(0.000574834 0.00106395 -1.50264e-21)
(0.000554978 0.00104704 2.07911e-21)
(0.000396983 0.000786769 0)
(0.000454289 0.000917841 -1.12857e-21)
(0.000575169 0.00135248 -4.36688e-23)
(0.000652623 0.00124525 6.65132e-24)
(2.41036e-05 0.000742454 0)
(0.000667512 0.000683075 -2.3476e-21)
(0.000644812 0.00116119 -1.35031e-22)
(0.000761091 0.00152292 -5.63792e-24)
(0.00061026 0.000708744 -6.76478e-22)
(0.000542658 0.00098395 -7.80276e-22)
(0.000522861 0.00105603 -4.58664e-22)
(0.000536559 0.000933364 -4.37522e-24)
(0.000550583 0.000987932 -6.09612e-25)
(0.000600841 5.06993e-05 -1.55893e-22)
(0.000276769 0.000739612 -1.08124e-21)
(0.000652685 0.00111138 -4.25973e-22)
(0.000535152 0.000940581 -1.06702e-23)
(0.000558234 0.000972222 -1.90749e-22)
(0.000561729 0.00107921 -6.78032e-23)
(0.000585385 0.00104379 0)
(0.000781671 0.000237889 9.60386e-22)
(0.000580794 0.00100819 -4.01945e-22)
(0.000622684 0.000429641 5.414e-22)
(0.000651583 0.0011453 1.24336e-21)
(0.000754045 0.000898361 0)
(0.00109012 0.000367005 6.1772e-22)
(0.000564298 0.00104397 3.72783e-25)
(5.2517e-05 9.96468e-05 -5.44344e-22)
(0.000629965 0.00104152 0)
(0.000236101 0.000517403 4.9991e-22)
(0.000759201 0.00141444 -7.31e-22)
(0.000611031 0.00105924 0)
(0.000583765 0.00105252 0)
(0.000720299 0.001349 0)
(0.00088956 0.000368445 -5.76024e-22)
(0.000463339 0.00102297 0)
(0.000507555 0.000713095 -1.67448e-21)
(0.000390231 0.000963555 -2.01799e-21)
(0.00128077 0.00133436 -6.84911e-22)
(0.000631654 0.0010613 -1.57592e-22)
(0.000712734 0.00125334 -8.41398e-25)
(0.000520859 0.000877475 5.12868e-22)
(0.000555659 0.000351067 -3.98189e-22)
(0.00069666 0.00121937 0)
(0.00050694 0.000688782 -5.36003e-22)
(0.000549189 0.000704309 7.23999e-22)
(3.313e-05 -1.18918e-05 0)
(0.000554673 0.00104702 -1.95108e-22)
(0.00053695 0.000912956 1.67602e-22)
(0.000358038 0.000793097 0)
(0.000811972 0.000199355 4.03505e-22)
(0.000661558 0.00119293 0)
(0.000410811 0.000938757 2.65386e-22)
(0.000787644 0.00141776 9.24898e-22)
(0.000484703 0.000953883 -9.01883e-22)
(0.000598164 0.00114214 -5.67642e-23)
(0.000396975 0.00100533 -1.32905e-21)
(0.000488338 0.000577569 -1.48309e-21)
(0.000617099 0.000761749 -3.04999e-25)
(0.000436617 0.00107107 1.02466e-22)
(0.000634091 0.00103799 7.48432e-23)
(0.000565531 0.000367789 8.05246e-22)
(0.000682539 0.000881309 -2.11475e-21)
(0.000385062 0.000643841 0)
(0.000667746 0.00121812 4.86911e-22)
(0.000570762 0.000989733 -1.92014e-21)
(0.00042604 0.000942344 0)
(0.000879847 0.000346957 1.30011e-21)
(0.000589675 0.00104711 0)
(0.000765459 0.00139229 -9.88027e-23)
(0.000813322 0.00141531 -5.0384e-22)
(0.000752823 0.00141852 4.10388e-22)
(0.000790132 0.00141923 -6.54302e-22)
(0.000671681 0.00125021 -1.57568e-22)
(0.000459073 0.000237339 3.58184e-25)
(0.000499323 0.00043253 -1.0888e-21)
(0.00059037 0.000247784 0)
(0.000567341 0.00107741 9.62208e-22)
(0.000891115 8.53575e-05 -3.61806e-22)
(0.000650441 0.00113404 0)
(0.000639809 0.00118996 0)
(0.000208735 0.000405749 4.25834e-22)
(0.000607868 0.00125619 0)
(0.000613693 0.00117084 -2.20858e-21)
(0.000491188 0.00108372 4.45353e-22)
(0.000797572 0.0014087 6.03677e-22)
(0.000263853 -1.55015e-05 -4.4406e-22)
(0.000546312 0.00082429 -7.29786e-22)
(0.000106949 0.00052514 -5.679e-22)
(0.000867095 0.00124184 -1.6512e-21)
(0.000558602 0.000977531 -1.70858e-22)
(0.000669363 0.00107474 1.24645e-21)
(0.000657906 0.00115289 -9.91335e-23)
(0.000669758 0.000169955 3.79917e-24)
(0.000809133 0.0014079 5.07804e-22)
(0.000607121 0.00108344 1.84593e-22)
(0.000659765 0.00115053 4.89924e-23)
(6.48463e-05 0.000508927 0)
(0.000605342 0.00109084 0)
(0.000541097 0.00102348 -1.16434e-21)
(0.000624311 0.00112274 3.86912e-23)
(0.000558741 0.00102317 -9.99542e-22)
(0.000583899 0.00100441 -2.47454e-24)
(0.00056481 0.00103459 0)
(0.000614388 0.000795858 -5.2471e-22)
(0.000793535 -5.16817e-05 -1.59364e-21)
(0.000581271 0.000407493 0)
(0.00057826 0.00103331 5.82586e-23)
(0.000567574 0.000988214 -3.50301e-23)
(0.000685339 0.000552803 1.47215e-21)
(0.000571294 0.00103343 6.34924e-25)
(0.000760207 0.00137621 -7.29201e-24)
(0.000495301 0.00103714 -3.75181e-22)
(0.000667644 0.00122034 -8.69716e-23)
(0.000633674 0.00120652 -5.94e-23)
(0.000689649 0.00119963 0)
(0.000418388 0.00132559 1.1398e-21)
(0.000635658 0.00111693 8.54591e-22)
(0.000553292 0.0011595 -6.08283e-22)
(0.000350381 -4.75785e-05 9.68827e-26)
(0.000605757 0.00115547 -4.66641e-22)
(0.00043258 0.00089349 1.10792e-21)
(0.000372606 0.000154915 6.32642e-22)
(0.000658954 0.00115529 0)
(0.000596984 0.00104219 8.28735e-22)
(0.000342744 0.00075309 -1.80167e-22)
(0.00115351 -1.66779e-05 5.1015e-22)
(0.00030384 0.000784896 5.86146e-22)
(0.000722197 0.00123862 1.06468e-22)
(0.00065912 0.00115638 -4.97293e-22)
(0.000569089 0.0010141 -6.40337e-22)
(0.000586916 0.000935964 1.7196e-21)
(0.000811117 0.00141582 3.8452e-22)
(0.000594348 0.000223277 -1.23234e-21)
(0.000573271 0.000180114 1.41743e-21)
(0.000626639 0.000116913 -1.46646e-21)
(0.000778664 0.00135891 2.50528e-23)
(0.000415522 0.000918541 -2.19138e-21)
(0.000651805 5.36818e-05 7.69333e-22)
(0.000621367 0.00121406 0)
(0.00081018 0.00141625 -3.91477e-22)
(0.000606974 0.00104101 7.62425e-22)
(0.000325218 0.000815829 -1.9689e-22)
(0.000258766 0.000389462 -1.00786e-22)
(0.000558817 0.00103864 6.16432e-24)
(0.000609933 0.00112033 1.86218e-22)
(0.000608967 0.00106328 -4.2194e-22)
(0.000570665 0.00105852 0)
(0.000521718 0.000893777 -7.28537e-22)
(0.000682822 -4.76025e-06 8.02811e-22)
(0.000583681 0.00109354 -4.77305e-22)
(0.000696322 0.00122158 4.57402e-22)
(0.00092362 0.00137668 -4.04373e-23)
(0.000588958 0.000241637 0)
(0.000427473 0.000141806 -5.74466e-22)
(0.000649855 0.00111407 -5.70057e-24)
(0.000660143 0.00115735 -5.23563e-22)
(0.000582276 0.00107399 2.73702e-23)
(2.02633e-05 1.62319e-05 1.20405e-22)
(0.000654087 0.00114926 1.05802e-22)
(0.000456422 0.000781359 -9.01221e-22)
(0.000821613 4.96043e-05 7.5417e-22)
(0.000662652 0.000135381 7.50161e-22)
(0.000754669 0.00139983 -1.57033e-23)
(0.000613977 0.00123687 0)
(0.000370371 0.000630676 -7.54644e-22)
(0.000294169 0.000542319 0)
(7.1648e-05 -3.97416e-06 6.36157e-22)
(0.000655815 0.00115092 -3.27636e-22)
(0.000762684 7.25898e-05 -8.92578e-22)
(0.000651771 0.00114576 -4.21052e-22)
(0.000529931 0.00109077 4.6672e-22)
(0.000505224 0.000975058 5.16008e-22)
(0.000730855 0.00123601 -4.16938e-22)
(5.60582e-05 0.000139809 2.04676e-21)
(0.000790207 0.00141181 1.63129e-22)
(0.000916388 7.53055e-05 0)
(0.00055066 0.00103629 7.95078e-23)
(0.000459083 0.000694773 -4.2361e-24)
(0.000594411 0.00103208 0)
(0.000579971 0.000452635 -2.16575e-21)
(0.000880899 4.80631e-06 0)
(0.00065955 0.00115059 9.40068e-23)
(0.000578591 0.00104718 5.94453e-22)
(0.00067782 0.00121177 -1.42119e-21)
(0.000635032 0.00112813 -1.25342e-22)
(0.000826775 0.000154623 -8.72206e-23)
(0.000593293 0.0010391 0)
(4.28042e-05 0.000346952 -1.29626e-22)
(0.000801543 0.00141062 0)
(0.000177319 0.00035663 0)
(4.39231e-05 0.000756564 -3.10727e-22)
(0.00053919 0.00110521 -8.33246e-22)
(0.00064226 0.000184443 -6.73256e-22)
(0.000647835 0.00111582 8.45607e-22)
(0.000462217 0.000962016 1.33378e-22)
(0.000749009 0.00120696 -9.5857e-22)
(0.000515792 0.00129964 0)
(0.000616672 0.00108403 3.49949e-22)
(0.000790507 0.00140059 0)
(0.00080606 0.00142515 -6.82784e-24)
(0.000572539 0.00108911 1.03315e-21)
(0.00060366 0.0010345 8.57369e-23)
(0.000562341 0.000667995 1.80171e-21)
(0.000470976 0.000416544 1.14128e-21)
(0.000515328 0.00103394 0)
(0.000617907 0.001084 -1.09063e-22)
(0.00079728 0.00140156 0)
(0.000590905 0.00102535 0)
(0.000582093 0.00111589 -1.10713e-21)
(0.000982592 0.00015911 6.19396e-22)
(0.000533975 0.0012232 0)
(0.000203098 6.24215e-06 8.43269e-22)
(0.000537782 0.0010029 -6.76908e-23)
(2.4849e-05 0.000122575 9.82502e-22)
(0.000680756 0.000483509 -8.85243e-23)
(0.000707624 0.00120448 4.62748e-22)
(0.000832254 0.00113954 8.94719e-22)
(0.000696958 0.00110511 -4.54794e-22)
(0.000510877 0.00127919 0)
(0.000560111 0.00106914 5.23059e-22)
(2.69514e-05 0.000392033 3.3309e-23)
(0.000589925 0.00104736 -3.85993e-22)
(0.000547058 0.00106936 -2.43324e-22)
(0.000808733 0.00142048 -3.43655e-22)
(0.000794949 0.00140948 -8.81131e-25)
(0.000574778 0.00104193 0)
(0.000649079 0.00125109 4.61731e-22)
(0.000639135 0.00106577 -7.50914e-22)
(0.000618552 0.0010817 1.95838e-22)
(0.000891459 0.000192408 4.49603e-22)
(0.000610492 0.00108311 7.17918e-22)
(0.000619798 0.00107783 0)
(0.000559177 0.00113193 0)
(0.000557162 0.0010924 4.78837e-22)
(0.000517853 0.000901801 -9.59738e-23)
(0.000578075 0.00101145 1.04536e-21)
(0.000655411 0.00115374 0)
(0.000522225 0.000894722 4.05762e-22)
(0.00103317 0.000377486 8.16447e-24)
(0.000651091 0.00117224 2.42441e-22)
(0.000602955 0.00104863 -7.25986e-22)
(0.00061025 0.000674643 5.22637e-22)
(0.000645528 0.00114378 -7.40545e-22)
(0.000721921 0.00125955 4.3222e-25)
(0.000760383 4.82126e-05 -1.33087e-21)
(0.000586517 0.00119337 1.75803e-22)
(0.000246205 0.000940114 0)
(0.000623945 0.00109266 -9.91039e-22)
(0.000440508 0.000971753 5.72468e-25)
(0.000410876 0.00131669 0)
(0.000341119 0.000902094 6.64289e-22)
(0.000639654 0.00114048 -9.38239e-22)
(3.50807e-05 -2.18687e-06 1.3657e-21)
(0.000232932 0.00134371 -7.78924e-22)
(0.000654202 0.00116152 -4.90508e-22)
(0.000657242 0.000434149 4.10456e-22)
(0.000587341 0.00104461 3.51712e-22)
(0.000582194 -0.000433099 -9.23987e-23)
(0.000860195 8.19008e-05 0)
(5.90633e-05 -1.55929e-06 0)
(0.000580813 0.00104639 -1.24224e-21)
(4.06715e-06 2.20169e-05 6.53634e-23)
(0.000646541 0.00114308 8.14839e-22)
(0.000581992 0.00103308 9.41981e-23)
(0.000585554 0.00106295 8.46574e-23)
(0.000641519 0.00113169 1.48091e-22)
(0.000548134 0.00120496 5.36813e-22)
(4.29633e-05 2.34599e-06 -1.4741e-22)
(0.00066565 0.00126428 -8.09328e-22)
(0.000622841 0.00108146 -1.44874e-22)
(0.000292253 5.40836e-05 0)
(0.000595005 0.00106185 4.0589e-22)
(5.0575e-05 -8.02051e-06 0)
(0.000651175 0.00110986 -8.43349e-22)
(6.00651e-06 -5.89624e-05 0)
(4.55226e-05 -6.27113e-06 0)
(0.000708329 0.00125276 2.73489e-22)
(0.000576661 0.00109053 4.2487e-22)
(0.000383886 0.000599563 -1.69991e-22)
(0.000584324 0.0010415 -6.60425e-22)
(0.000618778 0.0010793 -5.94825e-22)
(0.00065627 0.00114279 -4.09169e-22)
(3.83663e-05 0.000217289 -2.55422e-22)
(0.000905775 8.78262e-05 0)
(0.000807314 0.00141917 0)
(0.000636781 0.00132678 -4.64616e-22)
(0.000618671 0.00108284 5.34123e-22)
(0.000653163 0.00114958 0)
(0.000601545 0.00104331 -1.42037e-21)
(0.000602282 0.00103185 -1.55191e-21)
(0.000633642 0.00122352 0)
(0.000595315 0.00103622 0)
(0.000594715 0.00106794 -1.84545e-22)
(0.000405672 0.000301638 4.3241e-22)
(0.000533004 0.000819124 -4.79783e-25)
(0.000617063 0.00108478 -1.22719e-22)
(0.000684386 0.00126444 1.93892e-22)
(0.000617713 0.00108443 5.78494e-22)
(0.000603771 0.00108735 -6.01785e-22)
(0.000801338 0.00141074 -1.10756e-21)
(0.000593972 0.00104573 3.81694e-23)
(0.000630936 0.000363141 -2.26242e-21)
(0.000636687 0.0011926 -6.38473e-24)
(0.00062229 0.00108317 -1.67319e-22)
(0.000670699 0.00122589 -3.105e-24)
(4.89221e-05 7.82683e-06 -2.97671e-23)
(1.77542e-05 9.63375e-05 -9.67869e-22)
(0.000588177 0.0010435 6.53342e-22)
(0.000623662 0.00110623 -6.11597e-22)
(0.000838733 0.000797594 0)
(0.000596515 0.00104289 7.07445e-22)
(0.000635496 0.00124003 -2.90193e-23)
(0.000681724 0.0012594 -5.24664e-23)
(0.000518712 0.00114405 -1.24293e-21)
(1.57052e-05 8.01279e-05 -3.81258e-22)
(0.000686749 0.00127797 0)
(0.000657729 0.00116263 0)
(0.000614145 0.00108401 4.75418e-22)
(-3.33201e-06 3.86306e-05 1.09854e-24)
(0.000528222 0.0011121 0)
(0.000806037 0.00140956 4.60279e-22)
(0.00060191 0.00104184 7.62303e-22)
(5.86915e-05 0.000237485 0)
(0.000669581 0.0012132 0)
(4.78416e-05 1.17575e-05 2.89945e-23)
(0.000607832 0.00105733 1.35214e-21)
(0.000377816 0.00105155 6.85863e-22)
(0.000819641 0.00140877 2.97095e-22)
(0.000628087 0.00114127 -2.36629e-22)
(0.000586842 0.00103904 -1.59572e-22)
(0.000623337 0.00108176 0)
(0.000584778 0.00110376 -5.07553e-22)
(0.000662494 0.00115076 0)
(5.29952e-05 -2.20691e-05 -5.48698e-22)
(0.000795311 0.00140704 -1.41948e-21)
(0.00081557 0.00141621 7.72566e-22)
(1.74309e-05 0.000120137 1.56979e-21)
(5.72405e-05 -1.08934e-05 0)
(0.000805961 0.0014012 3.79154e-22)
(0.000662778 0.00124716 -2.8497e-25)
(0.000591715 0.00108897 6.14864e-23)
(0.000603407 0.00105606 -2.62084e-22)
(0.000614546 0.001143 6.83428e-23)
(0.000600082 0.00106295 -1.02464e-21)
(0.000622894 0.00111912 -5.04073e-22)
(0.000508008 0.00120604 7.08093e-24)
(0.000658225 0.00115305 4.48867e-22)
(0.000594027 0.00103879 -9.79207e-23)
(6.14505e-05 0.000280779 0)
(2.84375e-05 2.00145e-05 2.27614e-22)
(0.000723602 0.00125468 -4.19894e-22)
(0.000915395 9.14176e-05 2.39493e-22)
(0.000598383 0.00105391 0)