/*--------------------------------*- C++ -*----------------------------------*\
  =========                 |
  \\      /  F ield         | OpenFOAM: The Open Source CFD Toolbox
   \\    /   O peration     | Website:  https://openfoam.org
    \\  /    A nd           | Version:  8
     \\/     M anipulation  |
\*---------------------------------------------------------------------------*/
FoamFile
{
    version     2.0;
    format      ascii;
    class       volVectorField;
    location    "7.2";
    object      U;
}
// * * * * * * * * * * * * * * * * * * * * * * * * * * * * * * * * * * * * * //

dimensions      [0 1 -1 0 0 0 0];

internalField   nonuniform List<vector> 
6388
(
(0.000944002 2.57624e-05 1.14761e-21)
(0.000932766 1.49199e-05 0)
(0.000154773 -2.0822e-05 0)
(0.000872273 0.000325218 -4.61303e-22)
(0.000749084 0.00132922 3.15964e-21)
(0.000654233 0.00113489 -2.1857e-23)
(0.000444884 0.000477135 2.20626e-21)
(0.000624115 0.000781499 2.16982e-21)
(0.000349538 0.000263123 -9.4652e-22)
(0.00012452 0.000660625 0)
(0.000596194 0.00115208 0)
(9.06137e-05 0.000675963 0)
(0.000592539 0.000600199 2.05853e-25)
(0.000668087 0.0012226 2.38695e-21)
(0.000492647 0.000565945 3.22637e-21)
(0.000612725 0.000700476 0)
(0.0005554 0.000886929 2.46987e-21)
(0.000628434 0.00113503 -2.93798e-23)
(0.000286068 0.00057387 0)
(0.000144249 0.000452981 2.33778e-24)
(0.000513312 0.000694731 -1.15009e-21)
(0.000664891 0.000810651 0)
(0.000660974 0.0012128 -9.80562e-22)
(0.000770471 0.0013259 9.51071e-22)
(0.000693317 0.00116153 -2.37764e-21)
(0.000214961 0.000596178 -1.98479e-22)
(0.000651423 0.000594638 0)
(0.000474866 0.000747537 5.81511e-22)
(0.000351772 0.000687319 9.65427e-22)
(0.000720399 0.000251938 -2.3001e-21)
(0.000654395 0.00118243 0)
(0.000670934 0.00121613 9.39806e-22)
(0.000672787 0.00109732 -2.52394e-21)
(0.000603092 0.00123609 1.34948e-21)
(0.000656461 0.00118749 1.73076e-21)
(0.000594676 0.0011216 0)
(0.000698173 0.00114685 5.84715e-22)
(0.000187594 0.000878889 7.92293e-22)
(0.00062798 0.000607285 5.77119e-22)
(0.000605734 0.001184 1.32446e-21)
(0.000180962 0.000515845 2.7427e-21)
(0.000181346 0.000535912 -1.25129e-21)
(0.000937895 -2.53145e-05 -1.13518e-21)
(0.00064601 0.00121164 5.54133e-24)
(0.000598617 0.000201768 -2.72898e-21)
(0.000308833 0.000744276 -5.63946e-22)
(0.000973132 2.88782e-05 -1.14402e-21)
(0.000299102 0.000421644 5.14505e-22)
(0.000978024 0.000222669 5.61728e-26)
(0.00089168 0.000720765 -1.26544e-21)
(0.000164761 -5.68787e-05 6.56743e-22)
(0.000861158 7.9954e-06 4.56659e-21)
(0.000332788 0.000443312 -3.37605e-21)
(0.000209745 0.000506237 1.25917e-21)
(0.00014775 0.000718188 1.3245e-21)
(2.79319e-05 6.72159e-05 0)
(0.000764104 0.000841808 1.93478e-21)
(0.000850187 0.00035204 0)
(5.71883e-05 0.000443284 -1.51914e-21)
(0.000345538 0.000471239 -1.91387e-21)
(0.000522611 0.000865717 9.25706e-22)
(0.000700449 0.000334253 0)
(0.000395836 0.000656824 1.59207e-24)
(0.000984287 0.000292897 3.97068e-22)
(0.000436138 0.00108331 1.99581e-21)
(3.79296e-05 2.12319e-06 1.38518e-21)
(0.000561043 0.000826271 1.33321e-21)
(0.000592346 0.000687917 1.0532e-21)
(0.000157363 0.000793342 1.63566e-22)
(3.75554e-05 -2.58086e-06 0)
(0.00141357 0.00105026 -1.391e-21)
(0.00066298 0.0011568 -1.12589e-21)
(0.000706092 0.00107551 4.54544e-22)
(0.00053738 0.00140524 1.90715e-21)
(1.04658e-05 0.000113673 -1.90411e-22)
(0.000525187 0.000454573 4.79587e-25)
(0.000646903 0.00117201 7.65984e-24)
(0.000589581 0.000321027 -1.51896e-21)
(0.000903278 0.00031418 9.60306e-22)
(0.000669727 0.00115518 -7.43015e-22)
(0.000275604 0.00069188 3.00343e-22)
(0.000516294 0.00137236 -1.55882e-23)
(0.00037774 0.0010989 0)
(0.000368825 0.00108116 -1.50644e-23)
(0.00035801 0.0010566 0)
(0.000443472 0.00123547 -1.57635e-23)
(0.000707999 0.00134398 -1.46448e-21)
(0.000575701 0.00148867 1.65657e-23)
(0.000389908 0.0011304 -9.93538e-25)
(0.000410987 0.00117172 -1.20622e-23)
(0.000475784 0.00130211 -1.26711e-23)
(0.000348028 0.00103857 -1.13807e-23)
(3.71672e-05 1.89887e-06 -4.13804e-21)
(0.000943489 0.000153264 1.4197e-21)
(0.000556939 0.000674612 0)
(0.000907455 0.000186792 0)
(3.87705e-05 7.70768e-07 -2.81072e-21)
(0.000730728 0.00132274 6.9233e-22)
(0.000964977 0.000262276 -2.32041e-21)
(0.00115716 0.000527584 -1.49543e-21)
(0.000306968 0.000603619 -1.69544e-21)
(0.000409698 0.00129147 -8.89381e-24)
(0.000631126 0.000826107 0)
(0.000162722 0.000680715 2.69497e-21)
(0.000156629 0.00067737 -1.97757e-21)
(0.000509592 0.000868101 2.5469e-21)
(0.000311622 0.000319443 -2.37916e-21)
(0.000483957 0.000915049 0)
(0.000396115 0.000668907 1.622e-21)
(0.000202163 8.92161e-06 -2.68425e-21)
(0.00037729 0.000512974 -1.46269e-21)
(0.000670542 0.00112947 -1.24609e-21)
(0.000508096 0.000988956 0)
(3.22745e-05 0.000453162 2.87781e-22)
(0.000986112 9.04643e-05 5.961e-22)
(0.000987781 0.00011814 -2.03377e-21)
(0.000798377 0.00125924 0)
(0.000960471 0.000106187 -4.91935e-22)
(0.000660644 0.000589289 1.46374e-22)
(8.17051e-06 0.000150513 0)
(0.000723501 0.00125398 0)
(0.000190977 -0.000138476 0)
(0.00045638 0.000661816 -1.83138e-22)
(0.000325051 0.000265505 -3.75888e-22)
(0.000673758 0.00115993 -3.86965e-22)
(0.000961553 0.000226101 1.49162e-21)
(0.000410243 0.000285477 -2.82363e-21)
(0.000517883 0.000588684 -2.18479e-21)
(3.43503e-05 0.000207543 -4.33165e-22)
(0.000161372 0.000570445 -1.63189e-21)
(0.000608434 0.00113349 9.50634e-22)
(0.000438381 0.000770945 1.53313e-21)
(0.000292145 0.000303959 -1.23756e-21)
(0.000921206 0.000173582 0)
(2.12125e-05 7.55126e-06 2.54491e-21)
(0.000838251 0.00130359 -8.46178e-22)
(0.000829862 0.00132904 1.26601e-21)
(0.000537598 0.00142494 1.20437e-21)
(0.000617762 0.000293677 -1.70078e-21)
(0.000289187 0.000687697 0)
(0.000673849 0.001254 3.29126e-22)
(0.000875551 3.55815e-05 -1.2685e-23)
(0.000440642 0.000663972 3.4201e-23)
(0.00071366 0.000227113 2.01991e-21)
(0.000127726 0.000165477 1.09134e-21)
(0.000849115 0.000911854 0)
(0.000279872 0.000361418 1.30696e-21)
(3.5362e-05 -2.88184e-06 2.57541e-21)
(0.000804295 0.000722352 2.42365e-23)
(0.000872795 -1.00474e-05 0)
(0.000418907 0.00077243 -2.94677e-21)
(0.000958314 0.00025695 1.90097e-21)
(0.000290045 0.00070797 -1.57136e-21)
(0.000658515 0.0010788 5.97537e-22)
(0.000154478 0.000704045 2.50089e-22)
(0.000549715 0.000549609 0)
(-1.62313e-05 0.00069477 -1.20929e-22)
(0.000171885 -8.23026e-07 9.80073e-22)
(0.000696556 0.00122458 -7.55058e-22)
(0.000827392 0.00122949 2.19963e-21)
(0.000627584 0.000162 -1.96978e-21)
(0.000975094 0.000131792 -1.79674e-21)
(0.000666431 0.00116506 -2.22166e-21)
(0.000345838 0.000883697 1.88654e-21)
(3.88488e-05 -1.20338e-06 -1.46501e-21)
(0.000581252 0.00110881 0)
(0.000614764 0.00111786 -1.22328e-21)
(0.000626103 0.0011285 9.82861e-24)
(0.000601283 0.00109449 -3.64213e-21)
(0.000147258 -0.000305342 1.81722e-21)
(0.000664663 0.0012262 1.93121e-21)
(0.000419079 0.000762339 -1.11689e-21)
(0.000628404 0.000836225 4.90407e-21)
(3.39401e-05 -3.58554e-06 0)
(0.00141396 0.000135276 1.00561e-21)
(0.000676076 0.0012185 4.29482e-21)
(0.00041531 0.000295001 -5.61722e-22)
(0.000125093 -0.000425871 8.87584e-22)
(0.000983572 5.04489e-05 -2.7721e-21)
(0.000426956 0.000772781 0)
(0.00131178 0.00079769 3.81439e-22)
(0.000268672 0.000811433 0)
(0.000667459 0.00122602 -9.72116e-22)
(0.000703302 0.00124845 6.73157e-22)
(0.000688274 0.000866919 -1.40812e-21)
(0.000671288 0.00138354 -2.79258e-21)
(0.000300858 -0.000113954 3.33333e-21)
(0.000703214 0.00122533 2.35517e-21)
(0.000826602 0.000987977 -1.46756e-22)
(0.00060798 0.00109097 -1.00554e-23)
(0.000620244 0.00111398 -4.97207e-21)
(0.000422967 0.000851948 -2.25453e-24)
(0.000658776 0.00114316 8.1173e-22)
(0.000883194 2.74503e-05 0)
(0.000583322 0.000839885 -2.77263e-21)
(0.00028921 -0.00017109 2.04243e-21)
(4.07993e-05 -1.92682e-06 0)
(0.000235283 -0.000154961 1.19142e-21)
(0.000665773 0.00122588 -2.87329e-21)
(0.000716662 0.00126201 1.01343e-21)
(0.000616991 0.00104143 1.62462e-21)
(0.000597558 0.00107012 8.60338e-22)
(2.76216e-05 -4.97409e-06 5.1257e-21)
(0.000597814 0.00107984 1.57176e-21)
(0.000620603 0.00111615 -6.05877e-24)
(0.000610935 0.00110278 0)
(0.000728016 0.00129551 -8.89177e-22)
(0.000714602 0.0012928 -1.03677e-21)
(0.000119569 -5.8333e-05 -5.2247e-26)
(0.000602518 0.000529391 1.01286e-21)
(0.000721792 0.00126848 0)
(0.000734445 0.00132291 8.02556e-22)
(0.000613693 0.00104299 0)
(0.000582698 0.00107763 1.32977e-21)
(0.000681604 0.00122052 -1.40924e-21)
(0.00059155 0.00108498 0)
(0.000600016 0.00110026 6.93552e-22)
(0.000579243 0.00106232 6.87574e-22)
(0.00074053 0.00131431 -7.94668e-22)
(0.000560584 0.0010702 -1.97563e-21)
(0.000765925 0.00134885 -8.82182e-22)
(0.000582038 0.000279951 0)
(0.000806202 0.00144549 -8.34735e-22)
(0.000735214 0.00116948 -1.93626e-21)
(0.00013371 -6.63787e-05 -1.52252e-21)
(0.000641595 0.00101725 -3.44444e-23)
(0.000720172 0.00128898 1.09884e-21)
(0.000684421 0.00122277 7.42144e-22)
(0.000592752 0.00108762 0)
(0.000601671 0.00110283 -7.07887e-22)
(0.000579971 0.00106499 -7.01798e-22)
(0.000436261 0.000930996 -1.11308e-21)
(0.000727232 0.0013029 1.57407e-21)
(0.000288602 0.000370966 -7.26647e-22)
(0.000427407 0.000765882 2.27187e-21)
(0.000768049 0.00134643 -1.51437e-21)
(0.000480301 0.00104236 5.31313e-21)
(0.000834133 0.00148267 1.23963e-21)
(0.000680229 0.00118433 -1.01188e-21)
(0.000713187 0.00124959 -2.23106e-21)
(0.000614119 0.00107489 0)
(0.000622235 0.00108983 0)
(0.000601546 0.00105236 0)
(0.000667353 0.00133873 1.25459e-21)
(0.000616569 0.001102 1.48662e-23)
(0.000625004 0.00111726 1.46411e-23)
(0.000603676 0.00107902 1.45918e-23)
(0.000696869 0.00125653 1.4014e-21)
(0.000735371 0.0013332 4.14781e-22)
(0.000655206 0.00116546 0)
(6.48684e-06 -5.87365e-05 0)
(0.000795272 0.00138834 -3.38786e-22)
(0.000728586 0.00128764 0)
(0.000592296 0.00106894 6.17656e-24)
(0.000600307 0.00108264 -1.02935e-21)
(0.000579877 0.00104675 -9.97153e-22)
(0.000672322 0.00122789 -9.29009e-22)
(0.000675672 0.00122774 -2.47549e-24)
(0.000823878 0.00147278 6.78966e-22)
(0.000686541 0.0010502 -1.67922e-21)
(0.00068077 0.00121911 1.82599e-23)
(0.000662948 0.00102974 2.42981e-21)
(0.00067657 0.00105196 8.39891e-22)
(0.000748711 0.00137534 9.95824e-22)
(0.000681135 0.00121994 -6.46514e-22)
(0.000580862 0.00105366 9.52362e-22)
(0.000600997 0.0010904 -1.87e-21)
(0.000593219 0.00107602 9.70294e-22)
(0.000600388 0.0010833 -1.95007e-21)
(0.00060902 0.00109859 -6.42781e-22)
(0.000587886 0.00106065 -6.37054e-22)
(0.000740833 0.00134785 -6.14832e-22)
(0.000626199 0.00110971 -7.48719e-22)
(0.000850663 0.00142521 -3.81423e-22)
(0.000348192 0.000745492 -8.96512e-22)
(0.000656752 0.00116436 6.6886e-22)
(0.000216429 -0.000117523 0)
(0.000581933 0.00106086 0)
(0.000636358 0.00115025 6.15276e-22)
(0.000581858 0.00104578 -5.14386e-24)
(0.000787599 0.00140961 1.60552e-23)
(0.000715756 0.00126199 0)
(0.000665112 0.00119251 -6.527e-22)
(0.000879876 0.000699187 2.06654e-21)
(0.000575962 0.00107491 1.24781e-21)
(0.000914078 0.000464942 1.36055e-21)
(0.000628658 0.00112989 7.91871e-22)
(0.000727371 0.00127128 9.50396e-24)
(0.000394225 0.000641662 2.51959e-21)
(0.000726766 0.00131594 -2.70165e-22)
(0.00079198 0.00138385 -7.38174e-22)
(0.000397121 0.000746476 -4.06362e-22)
(0.000699757 0.00121712 -1.43018e-21)
(0.000362182 0.000533934 1.39465e-21)
(0.000659281 0.00116952 8.29614e-22)
(0.00073117 0.00128549 1.58779e-21)
(2.75256e-05 -6.23785e-07 0)
(0.000573116 0.00103548 1.08253e-21)
(0.000619583 0.00105003 1.00754e-21)
(0.000834784 0.000731732 -3.20328e-23)
(0.0007611 0.00143586 -1.08769e-21)
(0.000603857 0.00107372 -2.23157e-21)
(7.07433e-06 1.24191e-05 -4.38593e-21)
(0.000775129 0.0013703 6.63522e-22)
(0.000679262 0.0012037 8.98868e-22)
(0.000661432 0.0011986 1.44032e-21)
(0.000652923 0.000995593 -8.25181e-22)
(0.000675131 0.0010312 -8.32586e-22)
(0.000666311 0.00101693 -8.40739e-22)
(0.000824603 0.00145568 -4.23048e-22)
(2.25172e-05 5.30994e-05 -1.66871e-21)
(0.000613529 0.00109448 -1.17084e-21)
(0.000153939 0.000201684 3.30949e-22)
(0.000540816 0.00105755 -1.38925e-21)
(0.000362962 0.000636146 3.21692e-21)
(0.000507002 0.000157938 -4.89655e-21)
(0.00080035 0.00144407 1.04948e-21)
(0.000826544 0.00144367 0)
(0.00034595 0.000515664 -4.57668e-22)
(0.000653851 0.00116819 -1.61312e-21)
(0.000670121 0.00110404 2.04682e-21)
(0.000283332 0.000327844 6.63158e-22)
(0.000892087 0.00140993 -7.22885e-22)
(0.000616704 0.00104542 8.92068e-22)
(0.000823395 0.00147465 2.51539e-21)
(0.000376045 0.000695539 1.05279e-24)
(0.00051287 0.000821616 -1.26093e-21)
(0.000640254 0.00109709 -2.15073e-21)
(0.000717493 0.00129246 -5.22372e-24)
(0.00058206 0.00104396 0)
(0.000632772 0.00120631 -3.39383e-23)
(0.000540479 0.00104526 1.39311e-22)
(0.000553102 0.00106773 1.42066e-22)
(0.000562125 0.00108327 1.40783e-22)
(0.000705017 0.00132804 1.3948e-22)
(0.00082154 0.00127999 -6.14801e-22)
(0.00062874 0.00112814 5.10794e-24)
(0.000619185 0.00109266 0)
(0.000606246 0.00106905 -2.06298e-21)
(0.000557602 0.00105858 0)
(2.50148e-05 0.000698854 8.58876e-22)
(0.000679896 0.00122066 6.84926e-22)
(0.000584114 0.00104464 -5.98452e-22)
(0.000546078 0.000383639 -8.22419e-22)
(0.000700081 0.00128531 6.16178e-22)
(0.000627332 0.00112926 8.18707e-22)
(0.000330268 0.000481965 -1.72363e-21)
(0.000652313 0.00116842 -6.27945e-22)
(0.000683074 0.00121737 -1.59579e-21)
(0.000590427 0.00105433 3.15708e-21)
(0.00061275 0.00109153 3.18409e-21)
(0.000603539 0.00107662 1.27219e-21)
(0.000601698 0.00107512 -1.06402e-21)
(0.000614922 0.00109857 0)
(0.000705328 0.00128637 -1.91016e-21)
(0.00078785 0.00140154 9.74184e-22)
(0.00065337 0.00106782 -6.65585e-22)
(0.000757603 0.00135453 7.96924e-24)
(0.000551793 0.00105868 2.30386e-21)
(0.000684554 0.00120001 9.41785e-22)
(0.000592207 0.00108343 0)
(0.000613291 0.00112197 0)
(0.000604976 0.00110653 0)
(0.000500776 0.000873236 -1.07658e-21)
(0.000444506 0.000786008 -2.56107e-21)
(0.000786892 0.00125338 -4.37757e-22)
(0.000754597 0.0013356 5.18146e-22)
(0.000681344 0.00122086 7.19925e-22)
(0.00063349 0.000814254 -4.5057e-21)
(0.000576236 0.00106258 5.31629e-24)
(0.000597319 0.00110038 5.37688e-24)
(0.000588703 0.00108517 0)
(0.000792288 0.00144427 5.58332e-22)
(0.000676158 0.00116941 3.69645e-22)
(0.000597502 0.00107192 -1.03464e-21)
(0.000798313 0.00143391 -1.72917e-21)
(0.00063447 0.00142902 9.25643e-22)
(0.000787732 0.00142134 0)
(0.000621375 0.000986916 0)
(0.000627524 0.00113167 0)
(0.0004712 0.000784859 9.0242e-22)
(6.84329e-06 -1.70486e-05 -1.06267e-21)
(0.000602211 0.00108592 -5.83059e-22)
(0.000610907 0.00110124 0)
(0.000589631 0.00106321 0)
(0.000511224 0.000843335 0)
(0.000527528 0.00081183 -1.07592e-21)
(0.000656401 0.00116146 8.01103e-22)
(0.000566439 0.00104408 -1.31284e-21)
(0.000440468 0.000319983 1.36047e-21)
(0.000764608 0.00134814 1.40829e-21)
(0.000585581 0.00105335 -1.53224e-21)
(0.00063815 0.00112599 0)
(0.000578441 0.00105514 -6.47795e-22)
(8.26424e-06 -3.08752e-05 -8.63195e-22)
(0.000818075 0.00147375 0)
(0.000628778 0.00113116 -1.46355e-21)
(0.000721554 0.00128103 3.49911e-21)
(0.000667271 0.00117545 -6.46828e-22)
(0.000650782 0.00116214 -8.46592e-22)
(0.000335022 0.000691499 1.17979e-21)
(0.000380728 0.00053282 -1.88717e-21)
(0.000643349 0.000849814 -2.59154e-21)
(0.000801286 0.000294164 0)
(0.000775335 0.00120409 0)
(0.000658001 0.00116608 -8.10278e-22)
(0.00073708 0.00130311 -1.42505e-21)
(0.000569139 0.000584262 4.63209e-21)
(0.000773461 -1.58748e-05 2.13608e-24)
(0.000680556 0.00121773 5.55782e-22)
(7.27571e-05 0.000695215 1.17329e-21)
(1.88325e-05 -7.0198e-06 -5.24246e-21)
(0.000806414 -3.863e-05 -1.16955e-21)
(0.000613342 0.00106971 5.76356e-22)
(0.000592233 0.0010327 5.71311e-22)
(0.000604808 0.0010548 5.8206e-22)
(0.000486116 0.0012197 0)
(0.000427876 0.000275642 4.18132e-22)
(0.000583653 0.000245946 -1.3884e-21)
(0.000875326 0.0013417 -3.4102e-22)
(0.000278371 0.000560374 3.04433e-21)
(2.15281e-05 -2.81829e-06 1.99475e-21)
(0.000583933 0.001045 -6.50997e-22)
(0.000572228 0.00104101 7.61034e-22)
(0.00090947 0.000178415 0)
(0.000587195 0.00106127 -9.09002e-22)
(0.000636929 0.00114544 -4.61589e-22)
(0.000673983 0.00156422 7.22542e-22)
(0.000265026 0.000308468 6.07151e-22)
(0.000724119 0.00127323 0)
(3.02386e-05 -2.64688e-06 3.40274e-26)
(0.000727133 0.0013077 4.14795e-22)
(0.000675283 0.00140094 -6.21521e-22)
(0.000625136 0.00109437 6.75846e-24)
(0.000563399 0.000919527 1.30977e-22)
(0.000661104 0.00118834 -9.17137e-22)
(0.000935002 0.000171085 0)
(0.000582935 0.00104651 -2.28862e-23)
(0.000753914 0.00134686 4.76987e-22)
(0.000653219 0.00115849 1.52721e-21)
(0.000583559 0.00106006 7.00955e-24)
(0.000604441 0.00109798 7.05091e-24)
(0.000595924 0.00108271 6.64082e-22)
(0.000605033 0.001175 -1.12515e-21)
(0.000759363 0.00133398 1.09316e-21)
(0.000828663 0.00146965 -2.47417e-21)
(0.000747705 0.00132725 -6.03612e-22)
(0.000679456 0.00121847 -1.11037e-21)
(0.000735694 0.00070081 4.63185e-22)
(0.000814571 0.0014703 4.68894e-22)
(0.000659731 0.000854026 -1.35155e-21)
(0.000596072 0.00106055 1.16316e-21)
(0.000705094 0.00127506 2.82385e-23)
(0.000802871 0.00144184 -2.14642e-21)
(0.000659766 0.00135995 -8.45253e-22)
(0.000679751 0.00121964 6.48446e-22)
(0.000272298 0.000394452 -1.78094e-21)
(0.000460472 0.000580082 2.22075e-21)
(0.000623663 0.00108549 -6.48142e-22)
(0.000588214 0.0010605 0)
(0.000609433 0.00109839 0)
(0.000600757 0.00108314 0)
(0.000728619 0.00134342 0)
(0.000650876 0.00113485 0)
(0.000604402 0.00107115 1.34129e-21)
(0.000626181 0.00110971 1.35335e-21)
(0.000617265 0.00109412 1.36658e-21)
(0.000627121 0.00112914 6.12556e-22)
(0.000535278 0.00034652 3.32954e-21)
(0.000715928 0.00124933 -2.61904e-23)
(0.000812395 0.00145374 0)
(2.59986e-05 -3.09552e-06 -1.95037e-21)
(0.000649488 0.0011699 5.82716e-22)
(0.000221968 0.00049979 3.08732e-21)
(0.000679455 0.00121889 -1.20908e-21)
(0.000789093 0.0014398 1.06797e-21)
(0.000573889 0.00100214 -1.1553e-21)
(0.00097168 0.00011296 1.54995e-21)
(0.000703936 0.00128694 1.75097e-21)
(0.000679592 0.00124933 0)
(0.000717733 0.0012775 -3.77281e-21)
(0.000716606 0.00127187 5.72874e-22)
(0.000629215 0.00112823 5.572e-22)
(0.000628104 0.00112284 -6.60589e-22)
(0.000579826 0.00104368 0)
(0.000654274 0.0011669 -1.95875e-21)
(0.000652037 0.00116951 -5.72563e-22)
(3.93776e-05 -6.90068e-07 0)
(0.000606622 0.00105423 -1.56121e-21)
(0.000713859 0.00128603 5.37727e-22)
(3.79927e-05 3.99296e-05 2.36835e-21)
(0.000579602 0.00104036 0)
(0.000641207 0.00112957 4.62069e-22)
(0.000795504 0.00144217 -5.66159e-22)
(0.000777204 0.000723854 -3.88e-22)
(0.000665603 0.00117719 -8.97332e-22)
(0.000780838 0.00134931 -7.59933e-22)
(0.00079806 0.00139166 -5.93455e-22)
(0.000698538 0.00128423 0)
(0.000724241 0.00128815 -1.96514e-23)
(0.000539793 0.000837229 -1.28355e-21)
(0.00115551 7.61698e-05 -2.00675e-21)
(2.89633e-05 3.70705e-05 2.22954e-21)
(0.000581622 0.00104354 1.01565e-23)
(0.000890407 0.00110201 7.06313e-21)
(0.000796483 0.00143529 5.63695e-22)
(0.000732357 0.00129632 -4.72797e-22)
(4.02952e-05 -1.74389e-07 3.32975e-21)
(0.000634726 0.00140812 0)
(0.000770764 0.00051763 3.36098e-21)
(0.000787674 0.00143727 0)
(0.000489591 0.0012151 2.65072e-22)
(0.000586842 0.00103263 1.01679e-21)
(0.000794611 2.20143e-05 -1.10683e-21)
(0.000690074 0.000960003 -4.3862e-22)
(0.000596463 0.00105703 1.13665e-21)
(0.000835315 0.000658651 -7.73095e-22)
(0.000622955 0.000859239 -1.31318e-21)
(0.000810318 0.00143341 4.76549e-22)
(0.0008522 0.00151076 0)
(0.00057888 0.00102174 1.09496e-21)
(0.000734956 0.00127077 -8.1087e-24)
(0.000571126 0.00132693 -2.45589e-21)
(0.000510379 0.000876657 -9.36384e-22)
(0.000126568 0.000136289 -2.02901e-21)
(0.000689832 0.00114626 7.66289e-22)
(0.000982148 0.000273939 4.78445e-22)
(0.000588885 0.000746962 8.84923e-22)
(0.000705519 0.000702663 -1.60505e-21)
(0.000714506 0.00139685 7.6831e-22)
(0.000438474 0.000282078 -2.48535e-25)
(0.000807229 0.00143201 -1.04596e-21)
(0.000593976 0.00081152 1.35642e-21)
(0.000729268 0.00124384 8.72512e-22)
(0.000426014 0.000759427 -1.08147e-21)
(4.1729e-05 -4.51951e-07 1.20645e-21)
(0.00030057 0.000348021 1.50262e-21)
(0.000542106 0.00104952 0)
(0.000339778 -0.000161052 -2.96111e-21)
(0.000761325 0.00079655 -3.21774e-21)
(0.000331218 0.000574796 0)
(0.000700362 -7.62283e-06 2.10683e-24)
(0.000273995 -0.000125984 -4.87579e-21)
(2.9029e-05 4.26754e-05 -2.13159e-21)
(0.000838417 0.000239818 -1.71731e-21)
(0.000403476 0.000497373 1.09986e-21)
(0.000800339 -5.84858e-06 -2.15352e-21)
(0.00095566 0.000803662 1.46584e-21)
(0.00028462 0.000849053 8.94137e-22)
(0.000446873 0.000186545 -2.95653e-22)
(0.00015938 0.000423025 0)
(0.000675383 0.00067918 -2.31642e-24)
(0.000578259 0.000877432 2.33753e-23)
(0.000480646 0.000192726 9.76701e-22)
(0.000606727 0.00102366 -2.45774e-22)
(0.000392511 0.000495667 -1.09155e-21)
(0.000122175 0.000146835 1.63977e-21)
(0.000605291 0.0012608 -1.50341e-21)
(0.000397958 0.00024513 0)
(0.000630225 0.000537192 0)
(2.12727e-05 0.000662547 3.83656e-22)
(0.000504367 0.000870942 -1.56821e-21)
(0.000365147 0.00049103 -9.29503e-22)
(0.000957751 0.000313505 1.89038e-21)
(0.00103926 0.00130976 6.2e-22)
(0.000706226 0.00131155 -7.75966e-22)
(0.000324768 0.000230238 -1.61463e-21)
(0.000540784 0.000797198 0)
(0.000723252 -4.434e-05 3.82356e-21)
(0.000719257 0.00124345 -1.64959e-21)
(0.000751179 0.00130624 6.39758e-23)
(0.000379166 0.000303409 0)
(0.000392094 0.000521774 1.04183e-21)
(0.000652211 0.000304053 3.97949e-26)
(0.000710539 0.00143219 2.08933e-21)
(0.000968378 0.000133336 1.84383e-21)
(0.000720399 0.00124546 0)
(0.000798063 0.00137035 2.33178e-23)
(0.000724609 0.00124416 -4.04952e-24)
(0.000627517 0.00107785 2.36709e-23)
(0.000650432 0.00111714 -5.25165e-23)
(0.000641098 0.00110102 2.41283e-23)
(0.000590327 0.0010535 -4.45536e-22)
(0.000611685 0.00109105 -4.49421e-22)
(0.000602964 0.00107595 -8.34367e-24)
(0.000369198 0.00077453 8.12597e-22)
(0.000703548 0.00127805 2.00305e-21)
(0.000494315 0.00098624 -1.33604e-23)
(0.000357423 0.000663959 1.57857e-21)
(0.000347155 0.00053747 4.83397e-22)
(0.000478851 0.000904929 0)
(0.000460134 0.000343438 1.46235e-21)
(0.000749691 0.00130802 -1.36733e-21)
(0.000389685 -5.39546e-05 1.77783e-25)
(0.000497807 0.000134669 0)
(0.00097482 5.68557e-05 2.29478e-21)
(0.000734707 0.00126067 0)
(0.000549842 0.00106843 -2.24807e-21)
(0.000911975 0.00018053 0)
(0.000640252 0.00126153 -9.48925e-22)
(0.000756112 1.86481e-05 -1.06048e-21)
(0.00105238 0.000687869 1.94927e-21)
(0.000530978 0.00013363 6.5212e-24)
(1.60613e-05 7.02123e-06 -2.04724e-21)
(0.000757386 0.000426396 1.84074e-21)
(0.000404477 0.00023265 0)
(0.000178382 -2.40155e-05 -2.69595e-21)
(0.000530915 0.000857534 2.80064e-22)
(0.000241324 0.000751697 0)
(4.19353e-05 9.145e-07 -1.1666e-21)
(0.000456872 0.000638709 8.18441e-23)
(0.000961498 0.000541877 1.13027e-21)
(0.0007177 0.000214965 2.13573e-21)
(0.000508432 0.000637636 3.12954e-21)
(0.000839224 0.00153415 1.05992e-21)
(2.33766e-05 -6.34989e-06 2.15146e-21)
(0.000681909 0.00120035 9.75108e-22)
(0.000494522 0.000830036 0)
(4.49313e-05 0.000277064 -9.51391e-22)
(0.000624599 0.00111865 -9.56929e-22)
(0.000646115 0.00134322 -6.33204e-23)
(0.000619195 0.00130222 1.6061e-23)
(0.000718911 0.00147194 -6.24031e-23)
(0.000572587 0.00121037 -4.35366e-23)
(0.000775701 0.000927918 -5.32226e-21)
(0.000819585 0.00165072 0)
(0.00125332 0.000766103 6.04623e-22)
(0.00093421 0.000571992 9.98102e-22)
(0.000577987 0.00100902 0)
(4.08141e-05 1.99878e-06 -3.48625e-21)
(0.000653006 0.00127332 0)
(0.000498904 0.000669514 5.7407e-22)
(0.000923237 0.000520592 5.34526e-22)
(0.000649437 0.00115716 4.98188e-24)
(0.00077265 0.00133618 -3.02305e-21)
(0.00047121 0.000314385 0)
(0.000872041 0.00152751 -1.74821e-21)
(4.07175e-05 4.06373e-05 0)
(3.2816e-05 4.31576e-06 1.49488e-21)
(0.000584501 0.00104281 0)
(0.000758055 0.0012448 -1.00758e-21)
(0.00108566 0.000866551 -1.18925e-21)
(0.00113848 0.000912201 1.05893e-21)
(0.00072838 0.00126967 -2.29279e-21)
(0.000472199 0.00103093 -4.60938e-23)
(0.000606913 0.0012784 -4.88334e-23)
(0.000515433 0.00111934 6.18739e-23)
(0.000539429 0.00115564 -4.77301e-23)
(0.0007027 0.00145595 -6.04143e-23)
(0.00103003 0.000967072 2.2978e-21)
(0.000737791 0.00125574 0)
(0.000196055 0.000492422 0)
(0.000257833 0.00118059 1.34094e-21)
(0.000258818 0.000531385 -3.43953e-21)
(4.20466e-05 -7.13242e-05 0)
(0.000352207 0.000530415 0)
(0.000769645 0.00131905 -8.64613e-22)
(0.000826744 0.00145819 3.86534e-22)
(0.000791035 0.00140032 -1.18673e-21)
(0.000645665 0.00112814 -7.10878e-22)
(0.000404033 0.000892382 -5.74736e-24)
(0.000714959 0.0012405 8.12372e-24)
(0.000617082 0.000224847 -3.65962e-21)
(0.000862191 1.9283e-05 0)
(0.000754043 4.1273e-05 3.07499e-21)
(0.000117643 0.000335963 -9.88414e-22)
(0.000729976 0.00126209 3.6388e-22)
(0.000718918 6.52823e-05 0)
(0.000190406 1.35973e-05 1.23792e-21)
(0.000298285 0.000452974 -1.6718e-24)
(0.000719687 0.00124024 -3.9203e-22)
(0.000851208 -2.1509e-05 0)
(0.000437333 0.000405388 -3.19484e-21)
(0.000636349 0.00134291 0)
(0.000565442 0.0012146 0)
(0.00049711 0.00108619 0)
(0.000476202 0.00104653 0)
(0.000488156 0.00106976 0)
(0.000738581 0.000331639 7.29097e-22)
(8.72773e-05 0.000212626 -2.2922e-21)
(0.000299526 0.000266799 2.63707e-21)
(0.000746276 0.00153683 -5.8472e-23)
(0.0005762 0.0012256 -1.00787e-22)
(0.000589294 0.0012507 -1.02589e-22)
(0.000598846 0.00126791 -1.01082e-22)
(0.000672158 0.00140384 -1.01685e-22)
(0.000765251 0.00130015 3.12327e-21)
(0.000759114 0.00132213 0)
(0.000796191 0.000764571 1.70692e-21)
(0.00062171 0.00112702 1.01603e-21)
(0.000347119 0.000451823 1.63408e-21)
(0.000898715 0.000285318 1.23797e-21)
(0.00062748 0.00119477 1.0444e-21)
(0.000439636 0.000499095 -6.44034e-22)
(0.000366637 0.000602658 1.19234e-21)
(0.000714124 0.00124663 0)
(0.000990714 0.000838403 -1.98375e-21)
(0.000472076 0.000923026 -6.41419e-22)
(0.000428447 0.00082045 4.83218e-22)
(9.30888e-05 0.000533141 -9.34884e-22)
(0.00072207 0.00125237 7.23384e-22)
(0.000743689 0.00042525 -1.95289e-21)
(3.9038e-05 -1.06093e-07 1.42324e-21)
(0.00109882 2.26407e-05 0)
(0.000243041 0.000547897 2.33961e-24)
(0.000331739 0.000472465 9.82417e-22)
(0.000760335 0.000750113 -2.77983e-22)
(0.0016186 0.000429994 6.96955e-22)
(0.00014088 0.000741961 8.03693e-22)
(0.000469584 -6.53265e-05 0)
(0.000719357 0.000261108 0)
(7.12706e-05 -0.0001109 -3.99915e-22)
(0.00100135 0.000173616 2.06646e-21)
(3.89987e-05 3.94322e-06 8.52152e-26)
(0.000483538 0.000372076 -3.05563e-25)
(0.000860096 0.00150712 -6.85712e-22)
(0.000606399 0.00107929 3.3066e-21)
(0.000679247 0.00121662 0)
(0.000363957 0.000602538 0)
(0.000482742 0.00076296 -2.33059e-21)
(0.000548307 -0.000182365 2.40404e-21)
(0.000660331 0.00116766 -7.68554e-22)
(0.000730121 0.000721989 -5.44302e-22)
(0.000373513 0.000608222 1.16208e-21)
(0.00119485 6.15895e-05 -3.50807e-21)
(0.000785864 0.000785109 -2.09023e-24)
(3.82366e-05 -3.74845e-06 -1.41808e-21)
(0.000383079 0.000675677 2.46664e-21)
(0.000612253 0.00109652 2.31093e-21)
(0.000903009 0.000191313 8.72843e-22)
(0.000881085 0.000291256 -1.13975e-21)
(0.000559079 0.000259029 2.97988e-21)
(0.000811724 0.00136525 3.27208e-22)
(0.000377566 0.000632454 0)
(0.000835337 0.000698037 -9.00807e-22)
(0.000719652 0.00129037 -3.29427e-21)
(0.000584042 0.00103157 -1.39465e-23)
(2.71837e-06 1.75738e-05 -1.50932e-21)
(0.000168411 0.000236471 -1.26223e-21)
(0.000510349 0.000710692 -6.35289e-21)
(1.05983e-05 7.97235e-06 0)
(0.000681279 0.00121797 5.12259e-22)
(0.000362643 0.000466324 1.78377e-21)
(0.000659502 0.00115518 2.29469e-21)
(0.00062176 0.00113392 -8.8541e-22)
(0.000986312 0.000765681 -4.82077e-21)
(0.000213357 -2.42963e-05 9.81569e-26)
(0.000938063 0.000846742 7.63467e-24)
(0.000550248 0.00046088 -2.25057e-22)
(0.000719731 0.0012825 1.58427e-22)
(0.000820905 0.00145169 1.92837e-23)
(-9.1937e-05 0.00110613 -1.2948e-21)
(0.000870054 0.00154659 -9.83404e-22)
(0.000673431 0.00114019 -1.07898e-21)
(0.000522105 0.000906197 2.41395e-21)
(0.000709462 0.00124677 -3.71392e-22)
(0.000417753 0.000700837 0)
(0.000377053 0.00027619 -1.30031e-21)
(0.00150503 0.00123731 -8.46581e-22)
(0.000340514 0.000563833 0)
(0.000950175 0.000293742 0)
(0.000814545 0.000507115 4.46761e-21)
(1.42021e-05 -2.59971e-05 4.30155e-21)
(0.000713884 0.001237 0)
(0.000694432 0.000587493 4.55516e-22)
(0.000658538 0.00109763 8.39239e-22)
(0.000669026 0.0011124 4.20853e-22)
(0.000644873 0.00107473 0)
(0.000794471 0.00146526 -7.62374e-23)
(0.000495626 0.000102315 -1.38772e-21)
(0.000151926 1.39467e-05 2.9722e-22)
(0.000713156 0.000579589 -1.7806e-21)
(1.65198e-05 -3.4314e-06 -4.33058e-21)
(0.000620998 0.00109424 -1.26595e-21)
(0.000546036 0.00104522 2.26065e-23)
(0.000682942 0.00128374 -6.92871e-23)
(0.000599118 0.00114025 3.39648e-23)
(0.000614652 0.0011656 -6.91283e-23)
(0.000896551 0.00145544 3.88443e-21)
(0.00122418 0.00133245 7.37441e-24)
(0.000713775 0.000665596 -1.41452e-24)
(0.000343641 0.000656771 -6.08424e-21)
(0.000527749 0.000406827 -7.17331e-25)
(0.000148766 0.0001383 4.2664e-21)
(0.000499709 0.000536734 -8.25748e-21)
(0.000116005 0.00052785 5.9394e-22)
(8.44453e-05 0.000195773 3.51859e-21)
(0.00041366 0.000811756 -1.67107e-24)
(0.000271892 3.24633e-05 -9.403e-22)
(0.000615739 0.000264403 5.52316e-21)
(0.00050208 5.6632e-05 -5.31822e-25)
(0.000460945 0.00101348 7.35741e-22)
(6.71207e-05 0.00038262 -2.18082e-21)
(0.000587913 4.16819e-05 -6.43802e-24)
(0.00122139 0.000225375 -1.45262e-21)
(4.22912e-05 -1.66456e-06 -8.17563e-22)
(0.000888199 0.000210925 2.73319e-21)
(0.000729699 0.00103134 -1.26925e-21)
(0.000868508 0.00150554 4.99141e-22)
(0.000235713 0.000615262 -7.72565e-22)
(0.000592416 0.000434858 4.91083e-22)
(0.00064576 0.00125182 1.1986e-21)
(0.000622757 0.00113406 1.74443e-21)
(0.000714753 -0.000367095 0)
(0.000429203 0.00131172 -6.04557e-22)
(0.00105513 0.000908211 0)
(-0.000145278 0.00108296 1.10579e-21)
(0.000894225 0.000535376 9.70098e-22)
(0.000352834 0.00073936 0)
(0.000711431 0.00122642 0)
(0.00035708 0.000628116 0)
(0.000589751 0.00108628 4.55571e-21)
(0.000208051 0.000725619 -1.44022e-21)
(3.58612e-05 -3.7377e-06 -2.33631e-21)
(2.21089e-05 -9.82175e-06 2.05642e-21)
(0.00051715 0.000888133 2.80562e-21)
(0.000593204 0.00108267 -1.04277e-21)