/*--------------------------------*- C++ -*----------------------------------*\
  =========                 |
  \\      /  F ield         | OpenFOAM: The Open Source CFD Toolbox
   \\    /   O peration     | Website:  https://openfoam.org
    \\  /    A nd           | Version:  7
     \\/     M anipulation  |
\*---------------------------------------------------------------------------*/
FoamFile
{
    version     2.0;
    format      ascii;
    class       volScalarField;
    location    "32";
    object      p;
}
// * * * * * * * * * * * * * * * * * * * * * * * * * * * * * * * * * * * * * //

dimensions      [0 2 -2 0 0 0 0];

internalField   nonuniform List<scalar> 
591
(
0.000124043
0.000124059
0.000124073
0.000124033
0.000124034
0.000124117
0.000124099
0.000124066
0.000117059
0.000124071
0.000124233
0.000122958
0.000124088
0.00011983
0.000124067
0.000124115
0.000124002
0.000124102
0.000122084
0.00012345
0.000124037
-3.51786e-06
0.000124233
0.000124039
0.000124192
0.000124058
0.000124131
0.000124153
0.000124069
0.000124096
0.000124211
0.000124188
0.000124206
0.000124205
0.000124207
0.000123547
0.000124203
0.000124048
0.000124227
0.000124145
0.000124129
0.0001242
0.000124068
0.000124086
0.000124197
0.000124215
0.000119335
0.000124218
0.000124079
0.000124187
0.000124153
0.000124192
2.39498e-05
3.06198e-05
4.7901e-05
0.000124083
0.000124222
0.000124204
0.000124216
0.000124044
0.000124124
0.000124064
0.000124067
0.000124129
0.000122685
0.000124065
0.00012407
0.000124213
0.000120826
0.000124085
0.00012407
0.00012422
0.000124179
0.000124201
0.000124206
0.000124182
0.000124037
0.000124217
0.000124041
0.000123962
0.000123823
0.000124221
0.000124184
0.000124152
0.000124229
0.000124051
0.000124143
0.000124212
0.000124176
0.000123932
0.000124189
0.000124122
0.000124146
0.000124048
0.000124227
0.000124183
0.000123753
0.000123649
0.000123777
0.000124231
0.000124144
0.000124052
0.000124235
0.000124035
0.000124234
0.00012407
0.000124059
0.000124185
0.000124225
0.00012423
0.000124113
0.000124202
0.000124086
0.00012421
0.00012423
0.000124206
0.000124153
0.000124162
0.000123709
0.00012412
0.000124066
0.000124093
0.000124113
0.000124054
0.000124203
0.000120337
0.000124233
0.000124207
0.000123823
0.000124207
0.000124056
0.000123747
0.000124167
0.000124165
0.00012421
0.000124079
0.00012272
0.000124235
0.000124063
0.000123713
0.000123775
0.000124138
0.000124211
0.000124227
0.000124222
7.65461e-06
3.6996e-06
2.0838e-06
3.82008e-05
3.67454e-05
5.69639e-06
3.83438e-05
1.57744e-05
3.73185e-05
1.7846e-05
0.000124064
0.000124051
0.00012422
0.000124218
0.000124224
0.000124222
0.000124216
0.000124213
0.000124217
0.000124217
0.000124177
0.000124225
0.00012422
0.000124225
0.000124154
0.000123514
0.000124227
0.000122241
0.000124199
0.000124209
0.00012415
0.000124071
0.000124209
0.000124218
0.000124214
0.000123622
0.000122588
0.00012317
0.000123584
0.000124213
0.000124217
0.000124159
0.00012404
0.00012421
0.000123081
0.000123438
0.000124042
0.000124208
0.000123905
0.000124202
0.000124209
0.00012418
0.000123877
0.000124027
0.000124207
0.000124218
0.000124211
0.000124003
0.000124194
0.000123999
0.000124226
0.000124065
0.000124059
0.000124222
0.000123846
0.00012403
0.000124076
0.000123687
0.000124173
0.000123834
0.000124118
0.000124118
0.000124197
0.000123606
0.000124112
0.000124017
0.000124028
0.000124183
0.00012394
0.000124104
0.000124011
0.000123916
0.000124021
0.000124229
0.000123981
0.000124222
0.000124058
0.000124196
0.000124055
0.000124052
0.000124229
0.000123957
0.00012422
0.000123952
0.000123999
0.000124072
0.000124049
0.000124072
0.000124066
0.000123823
0.000124033
0.000123979
0.000124188
0.000124054
0.000123883
0.000124177
0.000123442
0.00012399
0.000123354
0.000123212
0.000124054
0.000124017
0.00012405
0.000124045
0.000123997
0.000124227
0.000124091
0.000124169
0.000124088
0.000124094
0.000124107
0.000124176
0.000123831
0.000124222
0.000123871
0.000123765
0.000124081
0.000124197
0.000123781
0.000124223
0.000124122
0.000124168
0.00012418
0.00012408
0.000124035
0.000123838
0.000124015
0.000124028
0.000124079
0.000124121
0.000124196
0.000124207
0.000124217
0.00012399
0.000124085
0.0001242
0.00012421
0.000124206
0.000124012
0.000124217
0.000124089
0.000124191
0.000123978
0.000124219
0.000123971
0.000124197
0.000124109
0.000124037
1.16638e-05
2.19422e-05
0.000124013
0.000124064
0.000124224
0.000124001
0.000124225
0.000124077
0.000124219
0.000124198
0.000123961
0.000124193
0.00012403
0.000124219
0.000124072
-2.08285e-07
0.000123899
0.0001242
0.000124197
0.000123921
0.000124036
0.000124069
0.000124193
0.000123985
0.000124213
0.000124109
0.000124067
0.000124191
0.000124031
0.000123955
0.000123978
0.000124083
4.74551e-05
0.000124208
0.00012419
0.000124056
0.000124214
0.000124134
0.000124082
0.000124056
0.000124062
0.000124201
0.000124102
0.000123994
0.000124086
0.000123998
0.000124214
0.000124005
0.000124048
0.000124089
0.000124169
1.99108e-05
2.73312e-05
3.4337e-05
9.66587e-06
0.000124041
3.30943e-05
2.60213e-05
0.000124211
1.91117e-05
1.70759e-05
3.82313e-05
7.59752e-06
3.99869e-05
5.63164e-06
4.08863e-05
3.70512e-06
4.28703e-05
1.88209e-06
3.64322e-05
2.32193e-05
2.94648e-05
1.50323e-05
0.00012391
0.000124221
0.000124109
0.000124119
0.000121036
0.000124182
0.000124216
0.000124188
0.000124017
0.000124221
0.000124215
0.000124204
0.000124201
0.000123974
0.000124063
0.000124198
0.000124203
0.000124044
0.000123934
0.000123939
0.000123528
0.000123991
0.000124231
0.000124207
0.000124074
0.000124229
0.00012392
0.000124072
0.000123876
0.000122993
0.000124202
0.000124212
0.000124229
0.000123925
0.000124081
0.000123879
0.00012408
0.00012406
2.60545e-05
2.18956e-05
3.30711e-05
1.16144e-05
0.000124236
0.000123925
1.98602e-05
2.82751e-05
3.5643e-05
9.58855e-06
0.000124045
0.000124157
0.00012402
0.000124019
0.000124086
0.00012416
0.000123952
0.000124199
0.000124124
0.000123227
0.000124025
0.000123993
5.93219e-05
0.000123352
0.000124225
0.000124052
0.000123956
0.000124215
0.000124218
0.00012404
0.000123832
0.000124071
0.000124139
0.00012391
0.000124173
0.00012304
0.000124013
0.000124004
0.000124168
0.000100907
0.000124016
0.000123617
0.000123989
0.000124227
0.000123885
1.09005e-05
2.1141e-05
3.54132e-05
2.82071e-05
1.36839e-05
5.48006e-08
4.2091e-05
2.69477e-06
4.01895e-05
4.7744e-06
3.94554e-05
6.82529e-06
3.86663e-05
8.86299e-06
3.73355e-05
1.36996e-05
3.17565e-05
3.06078e-05
2.39585e-05
2.52905e-05
1.78224e-05
1.29562e-05
1.57553e-05
0.00012422
0.000102567
0.000124044
0.000123986
0.000124224
0.000124119
0.000124229
0.000123953
0.000124114
0.000124194
0.000124189
0.000124228
0.000123959
0.000124086
0.00012393
0.000124159
0.000124014
0.000124224
0.000124077
0.000123909
0.000123911
0.000124099
0.000124096
0.000124231
0.000124222
0.000124226
0.000124193
0.000124231
0.000123872
0.000124069
0.000124226
0.000124014
0.000124154
0.000124067
0.000124075
0.000123937
0.000124193
0.000124192
0.000123513
0.000121475
0.000123246
0.000123785
0.000124068
0.000123892
0.000124097
0.000124229
0.000124184
0.000124079
0.000123675
0.000123662
0.000124226
0.000124195
0.000124095
0.000124161
0.00012371
5.83893e-05
4.01675e-05
0.000124167
0.000124184
0.000123558
0.000122879
0.000124051
0.000123757
0.000123502
0.000124081
0.000123936
0.000124207
0.000124093
0.000124125
0.000119139
5.45483e-05
0.000124092
8.12621e-05
1.85497e-06
-3.81602e-07
0.000124063
0.000124034
0.000124194
0.00012423
0.000124217
0.000124226
0.000124218
0.00012405
-2.31011e-06
0.000122968
0.000124079
0.000124174
0.000122149
0.000124224
0.000124224
0.0001224
0.000124161
0.000124196
0.000121796
0.000124222
7.6454e-05
0.000124222
0.000123725
0.000124187
0.000122507
0.000123766
0.000123796
0.000124097
0.000124225
0.000124181
0.000124223
0.000124234
0.000124075
0.00011631
)
;

boundaryField
{
    back
    {
        type            empty;
    }
    ingreso
    {
        type            zeroGradient;
    }
    salida
    {
        type            fixedValue;
        value           uniform 0;
    }
    front
    {
        type            empty;
    }
    defaultFaces
    {
        type            zeroGradient;
    }
}


// ************************************************************************* //
