/*--------------------------------*- C++ -*----------------------------------*\
  =========                 |
  \\      /  F ield         | OpenFOAM: The Open Source CFD Toolbox
   \\    /   O peration     | Website:  https://openfoam.org
    \\  /    A nd           | Version:  7
     \\/     M anipulation  |
\*---------------------------------------------------------------------------*/
FoamFile
{
    version     2.0;
    format      ascii;
    class       surfaceScalarField;
    location    "40";
    object      phi;
}
// * * * * * * * * * * * * * * * * * * * * * * * * * * * * * * * * * * * * * //

dimensions      [0 3 -1 0 0 0 0];

internalField   nonuniform List<scalar> 
1111
(
6.28428e-09
1.32954e-08
-1.56388e-08
-3.94091e-09
6.41613e-09
-1.17126e-08
1.15808e-08
-1.46758e-08
4.79265e-09
9.51894e-09
3.6424e-10
3.30068e-10
-3.98203e-10
-1.41113e-08
1.41794e-08
-1.40018e-08
1.37801e-08
5.51831e-10
-1.56964e-09
1.48618e-08
2.13642e-09
-4.01037e-09
9.73185e-09
-1.09303e-08
5.20886e-09
-6.6487e-09
-1.2595e-08
1.25552e-08
6.68857e-09
-5.0691e-08
-2.58008e-08
7.64918e-08
-8.08375e-09
7.52872e-09
6.97116e-09
3.64315e-09
3.47309e-10
-3.71781e-09
-2.72653e-10
1.56332e-08
-1.58072e-08
-2.29289e-08
2.31029e-08
-9.61921e-09
-8.01883e-09
8.80971e-09
8.82833e-09
-3.50813e-08
1.74924e-08
-3.2212e-08
4.98009e-08
9.54515e-09
-1.9177e-09
-1.42761e-08
-2.44434e-09
2.94589e-09
-3.80259e-09
3.30104e-09
-3.70736e-09
1.32151e-08
1.95125e-09
-1.1459e-08
8.87365e-09
-2.24242e-09
-1.50347e-08
8.40346e-09
3.79203e-08
-3.07276e-08
-7.19276e-09
-1.92546e-08
-2.40797e-11
1.75202e-08
1.75848e-09
-6.08968e-10
3.94878e-09
-1.79255e-08
1.45857e-08
-6.12521e-08
-3.96593e-09
6.5218e-08
1.77203e-10
-1.34487e-09
-3.82786e-10
1.55045e-09
-1.17779e-09
-1.3433e-08
-2.11652e-10
-3.41588e-10
3.15155e-10
2.38085e-10
-1.00067e-08
-8.10073e-09
1.24161e-08
5.69132e-09
7.70184e-10
-2.17242e-09
-8.49922e-09
9.90146e-09
7.86768e-09
1.00428e-09
-8.70538e-09
-1.66573e-10
-2.82424e-09
-7.78919e-09
1.08122e-08
-1.98777e-10
1.13453e-08
-4.52767e-10
-2.01885e-09
-1.04755e-09
1.02031e-09
1.01376e-10
-7.41323e-11
-3.4428e-10
9.19028e-10
5.09692e-10
-1.08444e-09
-6.43588e-10
-4.39132e-11
6.85644e-10
1.85775e-12
2.71474e-11
-1.07175e-09
9.33827e-11
9.51222e-10
-4.25782e-11
-9.77827e-10
7.19053e-10
-1.8318e-08
-1.65569e-09
-5.52275e-10
6.15765e-11
-1.52891e-10
1.33948e-08
-1.33041e-08
3.85801e-09
-4.51792e-10
6.64208e-10
4.31885e-10
-6.44301e-10
-5.703e-10
-2.48624e-09
1.89511e-09
1.16143e-09
-2.12298e-09
9.25825e-09
-1.11456e-08
-4.19416e-10
-2.12495e-10
7.96354e-11
-8.79511e-09
1.00766e-08
-9.36528e-09
1.18632e-08
-1.69336e-08
5.08221e-09
-1.18653e-11
1.00264e-10
-2.25714e-10
-2.93967e-10
2.84696e-10
9.30461e-10
-1.9485e-10
-5.98119e-08
7.43555e-08
-1.45436e-08
1.17568e-09
-3.86456e-10
-1.35997e-09
5.70745e-10
1.07379e-09
1.02925e-08
-1.37105e-08
2.34418e-09
-6.86581e-10
6.8653e-09
-8.30504e-09
2.12632e-09
-6.43326e-09
5.80707e-09
5.45988e-09
-4.8337e-09
-7.03512e-09
-2.30022e-09
2.1825e-09
7.15285e-09
-1.83463e-10
-9.09108e-08
9.12991e-08
-2.04845e-10
-2.54018e-10
-8.97545e-08
9.01599e-08
-1.51392e-10
8.30751e-08
-1.50468e-09
1.1599e-10
-8.16864e-08
-3.20993e-09
-1.20627e-10
8.39153e-10
9.39549e-10
-6.03025e-10
4.0613e-09
-1.76295e-09
3.27275e-09
-5.5711e-09
-1.13923e-09
1.03747e-09
-1.49845e-08
6.60413e-09
9.20684e-09
9.9082e-10
-9.89277e-09
-3.04889e-10
-6.30774e-09
1.28354e-08
1.48819e-09
-8.0159e-09
1.4264e-08
-4.01282e-09
3.23898e-09
-1.34901e-08
1.54161e-08
1.74515e-09
-1.73243e-09
-5.7585e-10
-1.98485e-08
-7.17578e-09
2.76002e-08
1.37043e-08
-8.23547e-09
-2.25123e-09
7.6127e-09
-1.16692e-08
-1.30101e-10
2.70035e-10
-1.4999e-09
-3.6789e-08
-2.3023e-08
7.97337e-09
1.16925e-11
3.87814e-09
-6.92663e-09
1.07117e-08
6.29152e-09
-7.11203e-10
4.08338e-10
5.74608e-10
-2.71743e-10
5.94828e-09
-4.61003e-09
3.54216e-09
-4.8804e-09
-6.60015e-10
-7.28275e-10
3.16538e-10
8.34007e-10
-7.84539e-10
-1.78715e-10
-1.17753e-09
1.01196e-09
-1.75316e-08
2.50497e-09
1.44439e-09
1.35822e-08
3.09223e-10
-8.37412e-10
-1.83015e-10
-3.81725e-09
-1.4751e-08
1.03672e-09
5.67586e-09
1.17303e-08
-5.24358e-09
-1.21626e-08
1.64343e-08
5.53457e-10
-1.59014e-08
-1.08642e-09
-7.97257e-10
5.65927e-10
6.39668e-10
-9.0452e-10
4.86571e-10
4.17949e-10
-7.08723e-09
-3.8037e-09
4.45767e-09
-3.91117e-10
5.66359e-10
-1.75242e-10
1.32303e-09
-1.5147e-08
-7.7403e-10
8.87732e-09
-1.02263e-08
-1.16796e-09
-1.08324e-09
1.25487e-08
4.39769e-09
-4.14887e-09
-1.27975e-08
2.74918e-10
6.95435e-09
-7.64956e-09
6.50229e-09
-1.94841e-09
-8.46026e-09
7.78529e-09
2.62339e-09
-1.78023e-09
5.9045e-10
-1.35613e-08
-2.38616e-10
-1.52502e-10
-4.52504e-10
1.21992e-09
-7.80254e-09
7.63179e-10
1.72749e-08
-1.60375e-09
-1.4081e-08
1.53054e-08
-1.22436e-09
1.19516e-08
1.4079e-08
-1.5625e-08
-1.04055e-08
-8.24872e-10
1.39589e-09
-5.71015e-10
1.32961e-09
-1.68742e-09
3.57817e-10
2.25772e-09
-3.20252e-09
9.44799e-10
1.8857e-09
-1.57309e-09
-3.12609e-10
-1.16596e-08
3.53524e-10
1.1306e-08
2.61492e-09
-7.29224e-10
8.86522e-09
-1.51293e-08
6.58803e-09
-7.72712e-09
8.14279e-11
3.98436e-09
-4.22635e-10
-2.96223e-09
3.04365e-09
-7.43096e-09
8.7729e-09
-1.34194e-09
-8.79614e-10
4.10041e-09
8.40502e-10
1.71502e-08
-1.45302e-08
-1.54616e-09
-5.45322e-09
5.1554e-09
-1.46513e-09
-2.58514e-10
6.66078e-09
-6.674e-09
1.3216e-11
7.06353e-09
4.34463e-09
2.4637e-10
-1.57895e-08
1.0392e-08
1.7349e-08
5.68371e-09
8.33417e-09
8.24245e-09
-6.78543e-09
8.07541e-10
-1.24671e-08
1.28329e-09
1.2879e-10
-1.27707e-08
3.48605e-09
-4.42391e-10
1.33178e-08
-1.27644e-08
-1.20343e-10
-1.09019e-09
-1.36882e-08
7.13919e-09
9.26912e-10
-4.9824e-11
-8.93461e-09
5.23877e-09
-3.13034e-08
-1.25622e-08
-2.43608e-09
1.31006e-09
1.37627e-08
1.09682e-08
-1.06444e-08
-1.40865e-08
1.6162e-08
-3.1203e-09
-1.30417e-08
1.75085e-09
3.84882e-09
-1.45569e-09
-9.8699e-10
-1.03685e-09
1.36428e-09
6.59562e-10
-3.04942e-10
4.35276e-10
4.44273e-10
6.21497e-08
-6.2161e-08
1.13077e-11
6.2078e-08
-6.23696e-08
2.91566e-10
8.25903e-10
6.4753e-08
-6.55802e-08
8.27152e-10
6.41468e-08
6.06201e-10
-2.19833e-10
-6.65285e-08
9.48378e-10
-6.20251e-08
6.18952e-08
1.29875e-10
1.32501e-09
-6.78536e-08
-6.219e-08
1.64907e-10
1.20968e-08
-1.13448e-09
1.75336e-09
-3.73626e-09
3.11739e-09
4.42426e-10
-1.30532e-09
1.15748e-09
-8.29799e-10
1.50451e-09
-1.78289e-09
1.10818e-09
1.56438e-09
-1.73447e-09
4.40134e-10
-1.0535e-10
-3.32217e-09
3.09024e-09
-2.35491e-09
2.58683e-09
-8.69591e-10
-2.88839e-09
2.62349e-09
-3.87812e-09
-5.56561e-09
6.62526e-10
-7.59833e-10
1.46252e-09
1.19947e-09
-6.61458e-09
8.02306e-09
2.93614e-09
2.04344e-08
-4.27236e-09
-8.32633e-10
3.04092e-10
1.19107e-09
-1.02056e-08
-2.65833e-08
5.4873e-09
-4.49444e-09
-3.0975e-09
2.10464e-09
1.37729e-10
1.12329e-11
5.36681e-10
-2.83151e-09
3.52956e-09
8.61387e-09
9.21912e-10
-5.81593e-10
2.23655e-09
-2.52455e-09
2.28001e-09
1.47061e-08
1.31356e-08
-2.68752e-08
3.23028e-08
6.14892e-09
-2.28099e-08
-1.02143e-08
1.79999e-08
-1.76275e-08
1.05959e-08
-2.75414e-10
-1.30549e-11
-1.44601e-09
-1.92435e-09
-2.43934e-09
3.86616e-09
1.46653e-08
-6.01561e-10
-1.34733e-08
3.65498e-11
-2.85448e-09
-7.04585e-11
1.53082e-08
1.73977e-08
1.35726e-08
7.14125e-10
-1.53271e-09
-1.2754e-08
-1.89566e-09
5.99527e-09
1.22293e-08
-8.06646e-10
-1.26137e-09
-3.5112e-09
2.72885e-09
3.87259e-09
2.41488e-09
1.4127e-08
4.12001e-09
-1.38494e-08
1.74219e-08
-1.7199e-09
2.86923e-09
-3.64935e-09
1.88376e-09
-4.52861e-09
1.28264e-08
-1.20052e-08
-1.38562e-08
6.10933e-10
8.7167e-09
-1.92135e-09
1.61997e-09
1.76391e-09
-8.75677e-09
5.19642e-10
-4.32505e-09
-6.01912e-09
1.21514e-08
-1.48891e-08
1.42338e-09
1.65351e-09
-2.15009e-09
1.63716e-08
-1.5875e-08
-9.72061e-10
1.39431e-08
2.7315e-09
-4.0148e-09
-1.3846e-08
7.26806e-09
-1.69466e-08
-7.94899e-09
6.49018e-09
5.83634e-09
1.4286e-08
-9.51792e-09
3.16377e-09
8.97754e-09
9.83814e-09
3.86864e-09
-4.10532e-09
2.14002e-08
-1.8758e-08
4.62589e-09
-1.00293e-08
2.26221e-09
5.37166e-09
1.34947e-08
-7.63179e-11
1.24838e-08
-1.33795e-08
-1.68646e-09
2.50172e-09
-1.64277e-09
8.27504e-10
1.07693e-08
-6.36153e-09
7.32252e-09
-1.04316e-08
1.39317e-09
-4.75577e-09
1.12014e-08
-1.16892e-08
-7.44561e-09
8.96724e-09
9.24771e-09
1.25982e-08
9.45688e-10
-1.36202e-08
1.71429e-09
8.49459e-10
-1.08596e-08
-6.72089e-09
1.01349e-08
-1.7624e-09
2.52488e-09
-8.76134e-09
4.74323e-09
-5.11421e-09
1.12544e-08
-3.48934e-09
-1.14264e-08
3.66128e-09
-4.52967e-09
1.10283e-08
2.12533e-09
1.20893e-09
-5.05403e-09
-1.74593e-08
1.03983e-08
1.21151e-08
8.76868e-10
-1.07363e-08
-9.67905e-09
1.53614e-08
1.22044e-08
2.71342e-09
-9.54621e-09
-1.31947e-08
-2.74601e-10
-1.24846e-08
2.71417e-10
-6.4218e-10
1.1183e-08
1.23814e-08
-8.10797e-09
1.61811e-08
-1.5522e-08
3.46093e-09
-4.70678e-10
1.66736e-09
1.23855e-08
-3.85837e-09
-1.24531e-08
-5.12011e-09
7.35038e-10
4.51386e-09
1.18976e-08
-7.43548e-09
7.77723e-10
-1.20493e-09
1.63164e-09
-2.11317e-09
6.09896e-09
2.58971e-08
-5.68646e-10
-1.22737e-08
1.28423e-08
2.80351e-08
-2.19603e-08
2.1988e-08
1.92173e-08
-1.25258e-08
-2.59808e-09
1.48212e-08
1.4525e-10
-1.20472e-08
-2.92083e-10
-6.01972e-09
-1.97465e-09
2.39847e-09
1.70151e-09
7.50703e-11
-1.07546e-08
1.08942e-08
-2.14682e-10
2.52376e-09
-5.51755e-09
-1.05782e-08
1.02526e-08
-6.97382e-10
-1.03764e-08
-2.66222e-11
-1.05635e-08
-2.87913e-09
-1.18023e-08
2.28447e-09
7.74951e-09
5.07088e-09
1.85464e-10
-1.14984e-08
1.1388e-08
6.82962e-10
-8.46426e-09
5.27236e-09
-9.08206e-10
2.70325e-09
-3.17314e-09
-1.29377e-08
-1.32639e-08
1.28807e-08
-1.00378e-08
-1.58188e-08
1.0067e-08
9.03534e-09
8.50346e-10
2.58882e-09
-1.48625e-08
1.08689e-08
1.70722e-09
4.04285e-09
3.83442e-10
-6.27665e-10
-4.15792e-10
-4.02269e-09
2.70927e-09
-1.54106e-09
3.59519e-10
-4.19861e-10
6.03421e-11
-2.51378e-09
1.25859e-08
2.13237e-09
2.55293e-09
-9.73958e-10
-1.82315e-09
-1.14256e-10
-2.57297e-09
-6.96179e-10
1.26482e-08
9.76581e-09
-5.02698e-10
7.10276e-09
-1.19116e-09
-5.4089e-09
-9.64854e-09
-5.09736e-09
2.80786e-10
7.87322e-11
4.65106e-09
1.36794e-09
-1.67553e-08
-6.03387e-10
-9.31536e-10
-2.35366e-09
8.36198e-10
2.62032e-09
6.19336e-08
-9.94411e-11
-6.18342e-08
6.23419e-08
1.94159e-10
-6.2536e-08
-1.41811e-08
8.59917e-11
1.45369e-08
-4.41797e-10
2.7027e-09
-2.07373e-09
2.81019e-09
1.78841e-09
-4.37352e-09
-5.23138e-10
-6.50551e-10
5.27586e-10
-1.48779e-10
6.20892e-10
-4.49946e-10
1.90111e-08
1.12159e-09
-1.54816e-08
-3.12024e-10
-1.96185e-09
1.21394e-08
2.20796e-09
1.74767e-09
5.1384e-09
-1.83417e-09
-7.72084e-08
-2.41759e-08
-4.79683e-09
1.56943e-08
2.3176e-09
-7.53106e-10
-3.36093e-09
-1.37649e-09
7.05246e-10
-5.90124e-10
-1.21687e-08
-3.07159e-10
1.24759e-08
-1.06253e-08
-6.66395e-09
1.05683e-08
-9.25983e-09
8.83266e-09
-1.37978e-10
1.88659e-09
1.1646e-08
-1.1392e-08
-2.53993e-10
7.51548e-10
6.50131e-11
9.7843e-09
1.08324e-09
-1.16218e-09
-3.52293e-10
-1.42258e-08
-5.22674e-10
-1.34085e-08
1.2135e-08
-1.14668e-08
-6.60051e-08
6.49553e-08
1.04982e-09
4.73599e-10
-4.62367e-10
1.16429e-08
-4.39074e-10
1.92126e-11
-1.96133e-09
2.76948e-09
-3.37815e-09
-1.35241e-08
-1.68023e-09
2.57879e-09
-4.70186e-09
-1.38034e-08
1.74989e-09
5.61668e-09
9.42149e-09
-8.74665e-09
-4.68707e-10
2.96326e-11
-9.35791e-09
-1.27395e-08
1.5187e-10
-6.2721e-08
2.32245e-10
6.24887e-08
6.96785e-10
6.345e-08
-2.27426e-10
-9.50223e-10
-1.43388e-08
1.11625e-10
-6.3382e-08
6.32704e-08
1.82244e-10
-6.29231e-08
6.27409e-08
5.41572e-10
6.1817e-08
1.55269e-10
-6.19722e-08
6.16504e-08
1.66553e-10
-8.78924e-08
8.85022e-08
-3.61257e-12
9.33717e-08
-9.30826e-08
-2.77821e-10
-8.66321e-08
-4.33091e-10
9.33472e-08
-1.95355e-10
-8.49159e-08
-7.67808e-10
9.34751e-08
1.63713e-10
-5.1584e-10
1.9533e-09
9.23477e-08
-6.93582e-08
6.21648e-08
-6.23482e-08
-6.2975e-08
6.15088e-08
1.41658e-10
-2.98395e-09
2.71158e-09
-1.3577e-08
8.5506e-11
1.95279e-10
2.24497e-09
9.4936e-09
-1.1736e-08
3.82036e-08
-3.44324e-08
-1.65418e-08
1.38589e-08
-8.2019e-11
-2.19335e-10
2.95696e-10
9.22404e-10
-1.82459e-10
4.05102e-10
4.6596e-09
1.04299e-09
-3.81883e-09
-3.98934e-10
4.6051e-10
-3.19299e-10
-2.41626e-09
1.2772e-08
2.23007e-09
-1.44471e-08
-2.36405e-09
-3.69065e-09
5.68862e-09
1.07562e-09
-2.49503e-09
1.41321e-08
-1.23883e-09
-3.98002e-09
5.89199e-09
-8.01688e-09
-1.90653e-08
-1.30386e-08
7.67032e-09
5.97922e-09
-3.17035e-10
-5.1957e-10
3.23508e-09
1.43685e-08
1.88514e-09
-1.39181e-09
-4.7586e-10
5.157e-10
-2.98354e-10
1.59641e-08
-4.61181e-10
-1.58101e-08
-3.42539e-09
-2.22147e-09
2.88533e-10
-2.25793e-10
3.99969e-09
-1.77829e-08
6.36217e-10
-1.70516e-09
-2.32969e-09
-2.36023e-09
1.52266e-08
-9.05881e-08
-1.40494e-10
9.16858e-08
-1.92532e-10
-8.91679e-08
-4.75002e-10
9.30922e-08
-2.7824e-10
-9.29134e-08
-6.32799e-10
-1.80158e-09
1.61897e-08
9.19929e-08
-1.95915e-10
3.11201e-11
-2.17775e-10
1.07241e-08
2.29651e-09
-9.28445e-09
-1.18863e-08
-5.63326e-09
8.46522e-09
1.38325e-09
-6.91234e-09
-6.36239e-09
9.06181e-09
-2.19035e-10
1.01614e-08
1.92617e-08
-1.76712e-08
3.02255e-09
-1.24399e-08
3.00939e-09
-7.00069e-08
4.00178e-09
-2.03298e-08
-1.28134e-08
-6.01465e-10
-5.85522e-09
-1.538e-08
9.18804e-09
-1.52112e-08
5.7341e-10
4.84972e-10
-1.51738e-09
-1.61487e-08
1.67158e-08
8.92021e-09
-9.04084e-09
-5.45399e-09
1.49605e-08
-1.66168e-09
8.33283e-10
-1.45116e-09
5.20008e-10
1.21863e-08
3.40834e-09
7.09472e-08
-1.79546e-08
9.28268e-10
-1.466e-08
-3.02335e-10
-3.48769e-10
-1.84863e-10
6.0974e-08
-6.12522e-08
-6.33509e-08
-6.3119e-08
-6.09995e-11
-2.56541e-10
-9.25959e-08
-6.04467e-08
6.24e-08
6.50713e-08
-6.0283e-08
6.45554e-08
-6.04784e-08
6.37876e-08
-6.07562e-08
6.33545e-08
9.23244e-08
3.81245e-10
-6.48494e-09
7.50458e-08
-6.51525e-08
1.06528e-10
-1.06528e-10
1.7596e-09
-3.76568e-10
1.54937e-08
-1.20441e-10
1.20441e-10
4.80602e-10
1.53296e-09
1.38958e-08
1.30086e-08
-2.74725e-09
3.72876e-09
6.34925e-09
1.94294e-09
4.60182e-10
-3.27242e-10
-2.89947e-09
1.43789e-08
1.48177e-08
-4.2963e-09
1.17063e-08
2.60254e-10
2.06497e-10
2.97035e-09
-1.01197e-09
-1.75355e-09
-5.94249e-09
-1.36856e-10
-4.82474e-10
1.52285e-08
3.60506e-10
1.54477e-10
1.60244e-08
-2.58016e-08
1.72592e-08
2.57334e-09
1.46784e-09
2.26741e-09
-3.57205e-09
1.89901e-08
-1.76854e-08
-1.32089e-10
8.01765e-10
-1.44455e-09
-7.9192e-08
-7.08028e-08
1.4616e-09
-1.05763e-09
7.22957e-10
2.28545e-08
1.83952e-08
-6.49131e-09
1.48688e-10
-4.48197e-09
-2.15982e-09
2.98952e-08
1.4442e-10
1.48084e-08
7.35733e-08
9.8595e-11
5.63746e-10
-2.16915e-10
-2.84357e-10
-3.86161e-09
2.42278e-08
-1.47838e-08
1.20574e-09
-1.4025e-08
-8.87506e-11
2.01559e-08
-2.8598e-08
8.99188e-10
2.4666e-09
-6.41305e-10
)
;

boundaryField
{
    back
    {
        type            empty;
        value           nonuniform 0();
    }
    ingreso
    {
        type            calculated;
        value           nonuniform List<scalar> 
14
(
-1.54286e-08
-1.54288e-08
-1.54288e-08
-1.54288e-08
-1.54286e-08
-1.54283e-08
-1.54288e-08
-1.54288e-08
-1.54286e-08
-1.54286e-08
-1.54288e-08
-1.5428e-08
-1.5428e-08
-1.54286e-08
)
;
    }
    salida
    {
        type            calculated;
        value           nonuniform List<scalar> 2(1.01384e-07 1.14615e-07);
    }
    front
    {
        type            empty;
        value           nonuniform 0();
    }
    defaultFaces
    {
        type            calculated;
        value           uniform 0;
    }
}


// ************************************************************************* //
