/*--------------------------------*- C++ -*----------------------------------*\
  =========                 |
  \\      /  F ield         | OpenFOAM: The Open Source CFD Toolbox
   \\    /   O peration     | Website:  https://openfoam.org
    \\  /    A nd           | Version:  8
     \\/     M anipulation  |
\*---------------------------------------------------------------------------*/
FoamFile
{
    version     2.0;
    format      ascii;
    class       volScalarField;
    location    "0.4";
    object      p;
}
// * * * * * * * * * * * * * * * * * * * * * * * * * * * * * * * * * * * * * //

dimensions      [0 2 -2 0 0 0 0];

internalField   nonuniform List<scalar> 
5756
(
7.19743e-06
1.88252e-05
2.47934e-05
2.3083e-05
2.75216e-05
2.3382e-05
2.56955e-05
2.60038e-05
3.03208e-05
2.84568e-05
2.87341e-05
3.31545e-05
3.12719e-05
3.15389e-05
3.41237e-05
1.80663e-05
3.43866e-05
3.60348e-05
0.000293093
1.22974e-05
3.70149e-05
3.72524e-05
3.8919e-05
3.98907e-05
4.01464e-05
4.28016e-05
0.000293334
0.000294037
4.30464e-05
4.18154e-05
0.000292779
4.57261e-05
0.000202177
4.59485e-05
0.000210217
0.000292518
0.000293866
4.47362e-05
0.00029454
4.86296e-05
0.000291462
4.88823e-05
0.000293219
0.000293029
4.76437e-05
0.000294047
0.000293763
5.54449e-05
1.66643e-05
0.00021058
0.000206413
5.56259e-05
5.44779e-05
5.83405e-05
5.08212e-05
0.000224742
5.85679e-05
0.000290413
0.000216467
0.000292657
5.27406e-05
0.000293559
0.000293451
0.000202726
6.12554e-05
5.7359e-05
0.000290359
1.43758e-05
0.00021725
6.1488e-05
0.000292554
0.00029345
1.54645e-05
6.41763e-05
0.000221907
1.73206e-05
6.02721e-05
6.441e-05
0.000292726
5.60022e-06
0.000207108
0.000292958
0.000211144
6.71113e-05
6.31961e-05
1.73642e-05
6.73631e-05
0.000293937
0.000292642
0.000202632
0.000226615
6.61155e-05
6.93125e-05
1.55975e-05
4.98547e-05
5.17862e-05
1.4512e-05
7.12548e-05
0.000298469
6.83401e-05
7.02873e-05
7.22223e-05
7.31842e-05
5.05805e-05
0.000292934
1.4386e-05
1.53274e-05
7.41533e-05
7.51228e-05
1.44693e-05
5.25378e-05
0.000292618
0.000292889
0.000293593
0.000215974
0.000292735
8.42109e-06
0.000292717
0.000292814
0.00020636
0.000215665
5.97071e-06
0.000292784
7.13717e-05
0.000212301
0.000292889
1.49803e-05
6.94221e-05
1.37769e-05
1.20994e-05
0.000292421
0.000292773
1.51244e-05
0.000292722
0.000207712
6.44934e-05
0.000292751
0.000292282
0.000291791
0.000292765
6.15684e-05
0.000293099
0.000293634
0.000205176
0.000214037
0.000292763
0.000217408
1.58576e-05
5.86644e-05
0.000292766
0.000292842
7.60056e-06
5.5773e-05
0.000203907
1.63923e-05
0.000284314
5.28649e-05
0.000292795
0.000291257
0.00021089
0.000293351
0.000203927
1.13229e-05
0.000292764
0.000203614
8.58598e-06
0.000292931
0.000293509
1.33787e-05
0.000292756
0.000292796
0.000292851
7.44646e-05
0.000206445
0.000292759
0.000293463
1.15028e-05
0.000292886
1.65656e-05
0.000292383
0.000292505
0.000295251
0.000204038
0.000202672
0.000289398
0.000293855
1.6852e-05
0.000293804
7.33411e-05
0.000292783
0.000209091
0.000293217
0.000293047
0.000293114
0.000292748
0.000203773
0.000292332
0.000292831
7.2361e-05
0.000209596
1.74174e-05
0.000292739
0.000292753
0.000292558
0.000292712
0.000289956
0.000292735
0.000292791
0.000292858
0.000292436
6.90665e-05
0.000292764
8.22308e-05
1.51961e-05
0.000292743
0.000292785
0.000203281
0.000292752
0.000207616
0.000293745
0.000292727
1.52115e-05
0.00020377
0.000208181
0.000292664
0.00029275
0.000206786
1.81202e-05
0.000292767
0.000292739
0.00029283
0.000292751
0.000293141
5.21431e-05
0.000109536
5.70254e-05
1.38817e-05
0.000292421
0.000291987
0.000292986
0.000292714
0.000293337
1.80343e-05
0.000292656
0.00021049
0.000292674
0.000292706
0.000292692
0.000292707
0.000292057
0.000292933
0.000292357
0.000293031
0.000292865
0.000292681
1.89032e-05
0.000293
0.000292868
0.000292733
0.000292817
0.000292766
1.38537e-05
0.000292673
7.10252e-05
0.000292744
0.00029287
1.8788e-05
0.000294829
0.000292602
0.000293778
0.000293104
0.000281909
1.24798e-05
0.00029287
0.000292769
1.96376e-05
0.000205567
0.000292443
0.000292776
0.000292935
0.00029226
0.000292784
0.000292753
0.000292741
0.000292918
0.000292545
0.000292827
0.000203883
1.09239e-05
2.02839e-05
0.000204416
0.000205277
0.000292771
0.000292706
0.000292771
0.000292927
0.000220335
0.000292821
0.000292389
0.000292758
2.22283e-05
2.1274e-05
2.27937e-05
2.35917e-05
2.31499e-05
2.44469e-05
2.53274e-05
2.62257e-05
2.71461e-05
2.80648e-05
0.000111455
0.000120205
0.000123125
0.000126057
0.000128971
0.000131901
0.000134832
0.00014551
0.000148445
0.000151375
0.000158179
0.000119233
0.000122155
0.000161101
0.000125079
0.000127996
0.000164025
0.000130932
0.00013386
0.000166947
0.000114314
0.000116263
0.000118208
0.000169858
0.000144542
0.000147471
0.000172804
0.0001504
0.000157211
0.000160129
0.000113394
0.000137668
0.00017964
0.000115349
0.000163052
0.00013962
0.000117293
0.000141581
0.00016597
0.000143515
0.000182562
0.000168888
0.00011238
0.000171832
0.00018551
0.000154225
0.000178654
0.000156179
0.000121129
0.000181594
0.000124044
0.000136786
0.000184537
0.000138724
0.000126962
0.000140667
0.000129869
0.000142606
0.00013279
2.89882e-05
0.000135712
0.000175673
0.000188476
0.000153323
0.000177616
0.000155271
0.000191444
0.000146434
0.000201954
0.000149344
0.000202959
0.000194441
0.000152265
2.10786e-05
0.000197515
0.000187485
0.000159104
0.000190454
0.000162017
0.000174758
0.000176713
0.000164936
0.000193454
0.000200514
0.000167861
0.00011615
0.000117111
0.000196472
0.000118099
0.000119065
0.000170785
0.000120029
0.000110324
0.000122949
0.000173707
2.99276e-05
0.000125863
0.000128773
0.000131688
0.000203976
0.000187401
0.000189368
0.000190367
0.000134614
0.000180539
0.000193346
0.000192346
0.000196376
0.000137539
0.000138513
0.000183481
0.000139484
0.000195369
0.000140463
0.000141452
0.000142437
0.000143407
0.000198426
0.000186418
0.000144383
0.000145352
0.000199583
0.000148249
0.00020158
0.000151183
0.000154102
0.000155089
0.000156066
0.000157036
0.000158011
0.000121971
0.000121125
3.08645e-05
0.000117236
0.000115289
0.000113339
0.000136692
0.000138644
0.000142551
0.000140601
0.000155205
0.000153245
0.000174694
0.000176646
0.00020718
0.000124893
0.000124037
0.000160934
0.000127803
0.000199465
0.000126967
0.000130707
0.0001299
0.000163855
0.000133636
0.000132834
0.000136559
0.000135765
0.000166775
0.00020578
0.00016969
0.000147269
0.000204995
0.000146431
0.000172619
0.000150185
0.000149383
0.000153124
0.000152299
0.000175544
0.000206606
0.000176536
0.000159953
0.000177515
0.0001591
0.000178488
0.000110498
0.000162872
0.000162011
0.000179464
0.000165797
0.000164932
0.000168706
0.000205437
0.000167849
0.000182408
0.000171619
0.000170796
0.000174558
0.000173736
0.00018535
3.18036e-05
0.000208421
0.000207036
0.000181416
0.000180569
0.000189436
0.000208514
0.000184363
0.000183501
3.27553e-05
0.000206271
0.000206143
0.000187312
0.000186458
0.000188435
0.000192426
0.00020737
0.00020755
0.000190285
0.000205003
0.000202504
3.37071e-05
0.000203771
0.000191415
0.000108896
0.00020389
0.000111719
0.00020507
0.000115703
0.000116671
0.00019332
0.000119101
0.000203603
0.000202774
0.000203338
0.00013031
0.000131276
0.000124376
0.000195753
0.000207964
0.000123493
0.000137125
0.000138102
0.000133129
0.000202664
0.00019744
0.000201691
0.000139945
0.00010792
0.000143919
0.000110843
0.000109828
0.000198497
0.000148701
0.000113765
0.000112688
0.000114625
0.000202785
0.000197373
0.000151708
0.00019961
0.000145782
0.000120584
0.000200634
0.000117642
0.000118144
0.000121551
0.000122411
0.000144887
0.000194364
0.000134095
0.000127381
3.46599e-05
0.000128356
0.000125341
0.000129223
0.00020075
0.000152688
0.000139073
0.000126429
0.000135177
0.000200529
0.000136046
0.000142
0.000142855
0.000140914
0.000132263
0.000162341
7.76973e-05
0.000147842
0.00020111
0.000165262
0.000161466
0.00014676
0.000149653
0.000200715
8.05904e-05
0.000150728
0.000199424
0.00017121
0.000155616
0.000198353
0.000156468
3.5616e-05
0.00017219
0.000157567
0.000194709
8.35455e-05
0.000155131
0.00015843
4.49431e-05
0.000159513
0.000173161
5.17645e-05
0.000160393
0.00016622
8.6138e-05
7.57298e-05
7.62828e-05
8.71133e-05
5.4672e-05
7.86066e-05
0.000198631
0.000198246
7.92596e-05
0.000163314
0.000179856
0.000153676
0.000167293
0.000197315
0.000194449
0.000164402
0.000168171
0.000198543
0.000169256
0.000197014
8.15223e-05
5.75737e-05
0.000134201
0.000170122
8.22233e-05
8.44563e-05
0.000177507
9.03658e-05
0.000177609
3.65743e-05
8.51503e-05
0.000175587
4.85463e-05
4.66114e-05
0.000182762
0.000196315
4.88241e-05
4.68791e-05
0.000174129
0.000193081
4.39651e-05
5.07815e-05
4.37007e-05
6.0489e-05
0.000195483
9.29529e-05
0.000200029
5.04902e-05
0.000155605
0.000174632
0.000180822
0.000190152
5.36954e-05
5.34022e-05
0.000195296
8.83644e-05
0.000196519
0.000192103
8.90497e-05
0.000196826
9.3927e-05
0.000183727
0.000188655
0.000196398
7.86834e-05
7.57489e-05
9.12877e-05
0.000107366
0.000191131
5.63244e-05
7.28232e-05
5.65994e-05
9.19772e-05
9.37555e-05
9.49054e-05
0.000189172
0.000195047
0.000198955
9.08151e-05
0.0001882
8.16016e-05
0.000166324
0.000190989
0.000194271
0.000184809
0.000197885
9.58728e-05
6.9891e-05
6.34076e-05
0.00018722
0.00017566
0.000181906
6.89109e-05
8.79018e-05
9.23197e-05
0.000191928
0.000154171
0.000186245
0.000186722
0.000185675
5.95098e-05
0.000176545
0.000195446
9.68519e-05
6.79334e-05
9.52597e-05
0.000193243
0.000187611
8.94032e-05
9.56812e-05
8.25816e-05
9.27726e-05
8.6904e-05
5.92426e-05
7.3804e-05
7.67296e-05
7.08719e-05
0.000194064
7.96581e-05
3.75308e-05
0.000189641
8.98393e-05
8.64751e-05
0.000195391
8.54946e-05
0.000192865
6.6334e-05
9.78282e-05
0.000178489
8.45262e-05
0.000192252
0.000185271
6.21633e-05
9.62062e-05
0.000193686
0.000106933
0.000106414
0.000192446
0.000154655
7.39457e-05
8.45139e-05
0.000126414
6.2425e-05
0.000190038
0.000134208
7.68691e-05
0.000196246
8.3554e-05
0.000191241
0.000109763
0.000184294
0.000193446
7.10231e-05
8.54956e-05
0.000183848
9.88046e-05
7.98e-05
6.69645e-05
0.00019533
9.86033e-05
3.84946e-05
6.58527e-05
0.000190242
7.18439e-05
0.00013615
0.000182491
6.48754e-05
0.000192647
8.80553e-05
0.000183322
0.000194391
7.38232e-05
0.000117651
0.000135622
7.47733e-05
6.53511e-05
9.97734e-05
8.9019e-05
0.000132587
0.000198191
6.80042e-05
0.000199953
0.000100637
0.000197183
0.000189239
3.84928e-05
0.000189469
0.000191296
0.000136601
0.000193417
0.000134656
6.89785e-05
0.000101542
0.000160414
8.70817e-05
9.76277e-05
9.99364e-05
0.000131214
0.000200852
7.47913e-05
0.000179839
0.000129336
0.000198106
0.000137578
0.000191639
0.000190419
0.000188248
0.000198119
0.000157508
3.946e-05
0.000190639
0.000125714
3.80665e-05
0.000126679
6.99508e-05
0.000133565
2.91116e-05
4.75788e-05
7.21909e-05
0.000156533
6.82792e-05
0.000171687
2.7947e-05
0.000145369
0.00012253
0.000195308
0.000187272
0.000189633
2.81728e-05
0.000199032
8.06227e-05
0.000201719
8.80875e-05
0.000171762
4.95186e-05
0.000192507
4.61323e-05
0.000124417
0.000161773
0.000100745
0.00014913
7.17388e-05
7.02357e-05
9.72105e-05
0.000109488
0.000118527
0.000154524
0.000103889
0.00014588
0.000185762
0.000173058
0.00013855
0.000182867
4.90204e-05
7.18873e-05
0.000155915
7.09204e-05
4.44123e-05
0.000172666
8.31892e-05
0.000119866
3.16208e-05
5.09591e-05
0.000130621
0.0001021
0.000186278
0.000179292
8.20249e-05
2.14566e-05
8.64572e-05
2.69914e-05
3.9032e-05
0.000100543
0.000162732
4.79549e-05
2.48439e-05
6.50802e-05
0.000143249
9.49178e-05
8.35108e-05
0.000104879
8.27228e-05
0.000198506
5.66878e-05
0.000116256
0.000186499
0.000108699
0.000100114
0.000188352
1.95723e-05
0.000170698
8.02532e-05
0.000160501
0.00017705
0.000110813
6.16381e-05
0.000223548
0.000188646
0.000187658
8.1595e-05
0.000187437
4.12014e-05
0.000123779
9.29333e-05
4.04239e-05
6.48531e-05
0.000148158
4.71008e-05
7.86514e-05
0.000194433
0.000185246
0.000102514
0.000102717
0.000127379
9.51833e-05
8.99952e-05
0.000116226
5.01167e-05
0.000112247
0.000185294
5.48211e-05
0.000202573
4.3447e-05
0.000159825
8.60966e-05
0.000203453
0.00018695
0.000115597
0.000129783
0.00011026
2.2303e-05
0.000100711
4.42568e-05
6.3585e-05
0.000184439
0.000101724
0.000200078
0.000187371
0.000198279
0.00018619
0.000101716
0.000158543
0.000101696
0.000138643
9.90962e-05
0.000107907
0.000104614
4.04888e-05
2.3933e-05
9.84791e-05
0.000184314
7.57592e-05
4.21813e-05
9.97314e-05
8.60167e-05
6.94578e-05
6.19164e-05
0.000203332
0.00010353
0.000120469
9.19527e-05
0.000111274
0.000161391
7.04284e-05
0.000120554
8.30686e-05
0.000133795
3.94871e-05
4.31728e-05
0.000174022
0.000173093
0.000109879
0.000199415
0.000183722
9.90213e-05
2.44711e-05
0.000104408
0.000171148
0.000197619
7.26346e-05
0.000199896
9.4417e-05
9.08574e-05
0.000198173
0.000185419
0.000193215
0.000183549
0.000118513
8.41713e-05
0.000101503
8.11283e-05
8.50184e-05
0.000175076
0.000102628
0.000105032
7.63993e-05
0.000166614
0.000172066
4.94671e-05
0.000140052
0.00018714
0.000108406
7.62464e-05
0.000186655
5.4915e-05
2.96001e-05
0.000100585
9.58912e-05
4.52342e-05
8.13434e-06
5.57959e-05
0.000134837
3.43722e-05
7.5272e-05
0.000164659
0.000185664
0.000114649
9.12244e-05
0.000105203
0.00011432
0.000135518
0.000183332
7.52694e-05
9.48776e-05
8.98827e-05
6.78303e-05
4.24701e-05
3.34791e-05
6.76126e-05
5.19187e-05
7.94566e-05
0.000187675
4.23619e-05
7.36317e-05
0.000174995
0.000184675
0.000186397
0.000140465
3.8272e-05
0.000204339
5.18152e-05
3.39906e-05
0.00011334
0.000127844
0.000184478
0.000182357
0.000144381
0.000158116
0.000103659
0.000105265
3.85218e-05
0.000101623
0.000135735
0.000156173
0.000204174
0.00010228
0.000166318
6.97854e-05
7.56632e-05
3.03964e-05
0.000171761
0.00010398
2.94558e-05
5.98079e-05
0.000204203
5.22171e-05
2.14589e-05
0.000181378
0.000145182
0.000116579
0.000186585
0.000104556
0.00013084
0.000182708
0.000187544
0.000202775
9.96261e-05
0.00016341
0.000167857
0.000158505
0.000140718
0.000200955
3.77219e-05
2.34326e-05
0.000149246
8.97244e-05
0.000168227
9.68559e-05
0.000116163
0.000155027
0.000202253
0.000183334
0.000117435
0.000141441
0.000119184
2.24664e-05
0.000180267
0.000170235
0.000188514
7.65617e-05
5.58288e-05
0.000124989
0.000181896
6.68267e-05
0.000192258
0.000171518
0.000184293
0.000170656
2.6286e-05
0.000110453
0.000180797
6.88073e-05
7.61365e-05
9.33014e-05
9.90962e-05
0.000122482
0.000137068
6.69717e-05
2.54088e-05
0.000117563
7.94851e-05
3.31851e-05
0.000175085
6.54664e-05
0.000125351
3.53566e-05
0.000114514
0.000195364
0.000221687
0.000132167
2.75834e-05
0.000174573
3.06219e-05
5.97501e-05
0.000164296
0.000111791
0.000177822
0.000181537
4.99837e-05
8.68895e-05
0.000180397
4.02209e-05
0.000153096
6.15332e-05
3.2202e-05
9.07574e-05
7.23972e-05
0.000143822
0.000109191
7.6271e-05
0.000183685
0.00017832
0.00010165
0.000130299
0.000201299
0.000102976
0.000115965
0.000132652
7.33666e-05
0.000186601
9.09504e-05
0.000152354
7.61241e-05
8.88206e-05
0.0001435
0.000173415
0.000108555
4.23139e-05
2.7233e-05
0.000153967
0.000119598
0.000179418
0.000138975
9.19962e-05
2.63545e-05
3.14003e-05
4.51311e-05
0.000122006
9.95762e-05
0.000170167
8.21684e-05
9.10251e-05
0.000165312
0.00015445
6.44994e-05
6.76329e-05
3.36838e-05
0.000185993
0.000158512
9.28193e-05
8.97897e-05
0.000171104
2.40333e-05
3.23907e-05
4.81945e-05
6.26672e-05
8.05875e-05
0.000164997
5.27922e-05
0.000154947
0.000158977
0.000154303
0.000144657
0.000109771
0.000129998
0.000181354
2.74822e-05
0.000176048
7.0467e-05
0.000112419
0.000135808
4.42972e-05
0.000165881
0.000121478
0.000179774
0.000192437
2.7369e-05
5.02359e-05
0.000188104
8.40367e-05
9.08719e-05
0.00012512
0.000132187
0.000177679
0.000101135
4.80525e-05
0.000201615
0.000150326
4.90447e-05
4.13917e-05
9.56893e-05
0.000167731
9.31695e-05
6.43751e-05
4.22046e-05
0.000106521
0.000147173
4.99046e-05
9.18385e-05
0.000199927
8.63291e-05
0.000176478
0.000115479
5.70542e-05
0.000166016
8.73101e-05
2.93811e-05
0.000135931
9.48442e-05
0.000101553
0.00016826
5.67667e-05
4.59066e-05
3.72997e-05
0.00018998
0.000161908
0.000199028
0.000118198
0.000116109
0.000137434
9.19252e-05
8.90084e-05
0.000151607
7.07619e-05
7.1214e-05
7.75418e-05
0.000170209
0.000191342
1.52854e-05
0.000127935
0.000122797
5.03098e-05
4.02255e-05
0.000106434
9.27897e-05
7.43001e-05
7.81949e-05
6.06955e-05
2.83764e-05
0.000139967
0.0001289
0.000144487
7.63304e-05
0.000102667
6.79671e-05
0.000185732
8.78509e-05
7.754e-05
0.000187557
2.32346e-05
0.00017888
0.000206534
0.000156554
0.000170851
0.000158841
7.51707e-05
0.000203317
0.00010347
7.3511e-05
9.88015e-05
5.76355e-05
6.48948e-05
2.41845e-05
0.000151982
1.7183e-05
0.000129312
0.000106188
0.000114059
0.000142361
8.50424e-05
5.3511e-05
0.000121446
0.000111314
0.000121182
0.000118912
6.75053e-05
1.88163e-05
0.000201885
0.000129643
5.31787e-05
0.000137759
0.000197677
2.3472e-05
0.000106817
0.000199836
5.56321e-05
9.61714e-05
0.000193626
0.000181728
8.73014e-05
0.000117943
0.000186635
7.91738e-05
0.000121091
0.000135589
0.000204945
5.10766e-05
0.00015801
0.000102673
2.66549e-05
7.53018e-05
0.000159156
0.000153376
0.00018062
0.00017443
7.14443e-05
0.000118064
7.0044e-05
0.000178608
1.99631e-05
6.29471e-05
0.000139758
0.000144892
0.000164073
0.000163348
4.22024e-05
0.000171866
0.000119588
0.000105588
0.000190795
0.000124096
0.000176343
0.000163695
0.000143573
0.00013488
6.45606e-05
6.55815e-05
0.000105463
0.000129951
0.000141636
3.32727e-05
0.000139698
0.000122071
2.24451e-05
0.000123249
3.53648e-05
0.000150754
0.000172122
0.000169145
0.000152246
0.000108784
9.29798e-05
2.04465e-05
0.000144221
7.65589e-05
2.57492e-05
9.29311e-05
7.91985e-05
4.96021e-05
2.64118e-05
0.00013288
0.000119997
2.18489e-05
9.4717e-05
0.000114379
9.28248e-05
9.00553e-05
0.000184703
0.00021183
8.54425e-05
0.000160073
5.8536e-05
8.01701e-05
0.00016277
0.00020124
0.000138965
0.000140437
0.000107539
0.000105533
0.000112472
9.45996e-05
0.000170887
0.000115193
7.53282e-05
0.000138766
0.000177467
0.000133013
0.000101694
0.000161868
0.000132157
0.000187919
0.000187016
0.000123381
0.000188587
0.00010539
0.000103594
0.000181749
0.000169706
0.000174705
0.000152657
0.00013682
0.000165914
2.93854e-05
5.0852e-05
7.0657e-05
2.75454e-05
0.00019739
0.000175524
1.15282e-05
3.30185e-05
0.000174027
8.89089e-05
0.000157535
9.99726e-05
0.000124763
0.000167917
0.000200996
0.000122195
3.13453e-05
0.000169822
8.30065e-05
0.000101872
6.80835e-05
6.17043e-05
3.2208e-05
0.00018563
0.000154061
0.000116985
9.9708e-05
6.84857e-05
0.000185099
0.000204066
0.000108381
0.000177014
9.42087e-05
9.18368e-05
5.5944e-05
2.65264e-05
0.000125826
0.000138866
0.000197137
0.000100711
5.29768e-05
2.04686e-05
0.000126171
3.94263e-05
9.97323e-05
4.09977e-05
0.000186272
0.000132916
0.000105416
6.26711e-05
4.78503e-05
5.48622e-05
8.51032e-05
9.76369e-05
0.000167199
0.000106216
0.00011236
0.000165761
5.20638e-05
0.000191747
5.38531e-05
0.00017151
0.000180758
8.11968e-05
0.000141276
4.13361e-05
3.74163e-05
0.000118262
0.000164296
8.80149e-05
9.86272e-05
8.93262e-05
0.000108333
0.000143262
8.93502e-05
0.000176494
8.89374e-05
0.000193781
6.70276e-05
0.000152038
8.25289e-05
0.000171099
9.17772e-05
5.78062e-05
8.02077e-05
7.67181e-05
0.000113069
9.67929e-05
2.74216e-05
6.80884e-05
6.26085e-05
5.39432e-05
0.000115258
5.15528e-05
0.000117538
2.91839e-05
9.19207e-05
4.98024e-05
0.00015624
2.44199e-05
8.98674e-05
8.35337e-05
8.59688e-05
0.000156026
0.00011936
4.90513e-05
0.000146272
0.000135072
8.20802e-05
6.97448e-05
5.90554e-05
7.34047e-05
7.91174e-05
0.0001056
0.000173788
0.000142646
0.000109142
4.04947e-05
0.000178443
0.000128246
7.9593e-05
0.000159469
2.39237e-05
0.000141403
0.000184068
3.83176e-05
3.55706e-05
0.000205963
5.80325e-05
2.94021e-05
0.000149422
4.62081e-05
0.000175731
0.000106366
7.63463e-05
0.000156589
2.94555e-05
2.21702e-05
4.91459e-05
0.000111154
0.000205142
0.000120971
2.1105e-05
0.000163163
0.000144589
5.29529e-05
0.00010368
0.000105948
0.000153554
9.38016e-05
0.000198286
5.09531e-05
5.66349e-05
0.000103945
9.75014e-05
7.41673e-05
5.27494e-05
0.000113557
0.000112126
8.51639e-05
5.28838e-05
0.00014911
6.27579e-05
5.22494e-05
0.000174984
7.63763e-05
9.81237e-05
7.76826e-05
0.000147725
0.000117086
0.000152119
0.000198566
0.000144801
7.15716e-05
0.00017028
2.54652e-05
6.93005e-05
0.000117021
0.000184667
8.49489e-05
0.000105913
0.000172068
0.000102571
2.5486e-05
9.66606e-05
0.000157448
4.6906e-05
8.31526e-05
0.000136706
0.00012579
9.39088e-05
7.91722e-05
6.77972e-05
0.000120327
0.000166385
0.000198855
8.09885e-05
0.000146492
0.000135232
5.13824e-05
0.000175512
0.000113656
6.5142e-05
0.000123893
0.000119489
0.000103314
7.22191e-05
0.000104558
3.33765e-05
0.000149178
3.75175e-05
0.000100676
9.78239e-05
8.40946e-05
0.000140962
0.000129716
5.79046e-05
0.000176644
2.51096e-05
6.96006e-05
0.00014885
0.000104446
0.000128413
0.000133279
6.22251e-05
0.000170797
4.08494e-05
0.000102331
0.000199349
0.000159569
2.9329e-05
3.71551e-05
1.85536e-05
2.32429e-05
0.000125016
0.000137784
0.00014141
4.71029e-05
0.00012702
0.000139335
8.89831e-05
0.000180991
8.75793e-05
0.000109913
0.000124521
4.41443e-05
0.000191642
0.000134508
7.15425e-05
0.000119651
0.000131328
4.66791e-05
3.33897e-05
0.000191475
0.000119029
3.61784e-05
0.000190582
0.000116322
5.53469e-05
6.96804e-05
0.000161519
0.000158944
4.98313e-05
8.73737e-05
2.79962e-05
0.000140003
0.000115141
0.000196475
0.000164432
2.73054e-05
8.39707e-05
0.000134256
0.000162077
0.000161382
6.2479e-05
0.00010358
0.000159411
9.36053e-05
6.47121e-05
6.85302e-05
0.000138772
0.00012881
0.000194086
3.44697e-05
0.000111741
0.000104497
0.000125968
3.74963e-05
0.000162496
0.000105617
0.000157619
9.56138e-05
4.41881e-05
2.42901e-05
7.90404e-05
0.000101388
0.000148558
0.000203107
7.19906e-05
0.000171596
0.000193159
0.000167597
0.000109298
6.50848e-06
6.07217e-05
0.000157005
0.000150436
4.37663e-05
0.000164824
4.39852e-05
8.40498e-05
0.000191746
9.19533e-05
0.00011236
9.96418e-05
9.28792e-05
9.88365e-06
9.26828e-05
8.58689e-05
0.000168334
0.000118567
0.000120503
3.6346e-05
9.46367e-05
5.85836e-05
5.04263e-05
0.000200622
3.49652e-05
6.86214e-05
0.000167353
0.000103001
4.30116e-05
0.000119279
0.000167628
5.76086e-05
0.000110396
0.000108939
9.67011e-05
5.98355e-05
8.00161e-05
0.000124411
0.000188753
9.76972e-05
3.22934e-05
0.000170529
4.76416e-05
0.000203335
2.33473e-05
3.24322e-05
3.52036e-05
8.07704e-05
0.000162374
4.78847e-05
0.000185636
9.09263e-05
5.573e-05
0.000153732
5.95568e-05
0.000110169
0.000108831
1.94737e-05
4.62414e-05
9.17076e-05
0.000136087
0.000204087
0.000131606
0.000182769
9.97883e-05
0.00012967
0.000201251
0.000101639
0.000151779
2.29495e-05
0.000136206
0.000172176
0.000101604
9.66576e-05
0.000129384
0.000172439
0.000156365
0.000143376
0.000141677
0.000159197
0.000140335
6.27582e-05
8.61008e-05
0.000178072
0.000126359
0.000174546
0.000103639
0.000196784
0.000133592
9.87559e-05
0.000155489
3.081e-05
0.000170548
3.42327e-05
0.000103439
0.000123927
8.8871e-05
0.000105386
0.000172503
0.000134771
0.000147879
0.000144956
5.9583e-05
0.000143012
0.000167257
0.000143984
5.46894e-05
0.000195889
0.000140102
7.85207e-05
7.66401e-05
5.5663e-05
6.36776e-05
0.000188917
0.000146193
0.000155672
0.000181964
8.87757e-05
0.000167965
8.21466e-05
0.000137999
0.000130352
7.41912e-05
0.000131231
0.000175154
0.000106745
0.000103905
0.000189717
2.53033e-05
5.00354e-05
0.000122572
0.000112285
0.000160427
5.37192e-05
6.92585e-05
8.97548e-05
0.000129305
8.592e-05
3.14051e-05
0.000122101
0.00013262
0.000171255
2.6299e-05
0.000114165
3.81306e-05
0.000173914
0.000195395
5.58631e-05
9.5815e-05
9.36783e-05
3.91047e-05
2.60379e-05
0.000137182
0.000150619
5.3918e-05
0.000200228
0.000177906
0.000118967
0.000122865
2.43212e-05
0.00010332
0.000205499
9.67869e-05
0.000160481
3.09984e-05
0.000192669
0.000189872
0.000141074
0.000161364
0.000121942
4.00832e-05
0.000127137
0.000145931
5.63952e-05
0.000139129
8.61462e-05
6.36426e-05
0.000120622
0.00012549
0.000108493
5.49693e-05
0.000190683
7.12476e-05
6.15052e-05
0.000173206
0.000100158
8.39132e-05
3.17529e-05
6.14525e-05
6.05286e-05
3.65632e-05
0.000110885
0.000137417
0.000110735
2.1401e-05
4.8618e-05
0.000126458
2.83151e-05
5.69125e-05
0.000110164
6.47092e-05
7.5142e-05
5.17753e-05
3.19616e-05
0.000205074
3.5563e-05
0.000138155
0.000150809
0.000163802
0.000140568
3.43604e-05
2.26444e-05
6.4606e-05
0.000111865
0.000168834
0.000165411
5.67746e-05
0.000154699
0.000187782
8.19643e-05
6.90666e-05
0.000137097
6.73465e-05
0.00011604
0.000138495
0.000138503
0.000105535
3.04012e-05
9.80121e-05
0.000113199
0.000141314
6.5398e-05
0.000119937
0.00011659
3.33782e-05
0.000166729
3.92524e-05
0.000197436
0.000109316
0.000165896
8.31208e-05
6.55843e-05
0.000135169
0.000157144
8.51324e-05
9.53963e-05
7.34783e-05
3.79629e-05
4.64122e-05
0.000134573
4.49604e-05
1.76933e-05
0.000115389
0.000158888
2.04358e-05
0.000174178
0.000161783
0.000128691
0.000100756
0.00019357
9.36576e-05
0.000175769
0.000113811
0.000146425
0.000205613
0.000158225
0.000149829
0.000117699
0.000108517
0.000161216
0.000140303
3.93062e-05
0.000100952
0.000132301
0.000142046
5.97467e-05
0.000101732
0.00012707
2.23759e-05
0.000141874
0.000102712
0.000136446
9.77299e-05
7.71116e-05
4.42929e-05
9.77676e-05
8.79119e-05
3.27046e-05
8.46749e-05
0.000174448
1.88921e-05
0.000164131
5.10795e-05
0.000153034
0.000124815
0.000152755
0.000107393
0.000197299
8.78062e-05
5.78887e-05
0.000147397
9.63759e-05
8.29417e-05
0.000126835
6.17783e-05
6.27075e-05
0.00016956
9.89824e-05
0.000140708
0.000181793
0.000177101
9.07314e-05
5.19845e-05
7.02756e-05
0.000105843
0.000185847
0.000175676
5.71094e-05
7.45957e-05
9.48287e-05
4.56354e-05
5.4194e-05
0.000183157
0.000114992
0.000154344
4.33236e-05
4.13714e-05
0.00018025
4.61314e-05
3.32641e-05
0.000157927
9.12779e-05
5.08009e-05
2.98662e-05
0.000154022
8.87399e-05
0.00010796
0.00011257
8.59321e-05
4.44879e-05
6.63725e-05
0.000134466
0.000114069
4.81811e-05
2.526e-05
8.507e-05
0.000103521
9.88144e-05
0.000158991
0.000184128
0.00014933
4.37605e-05
7.61162e-05
7.15178e-05
0.00016771
0.000162837
7.70885e-05
7.54466e-05
8.80632e-05
9.65934e-05
0.000151137
0.000115056
6.1783e-05
9.42008e-05
4.59334e-05
2.34857e-05
0.000182187
0.000153099
0.000182935
8.13787e-05
0.000116731
0.000150095
0.000172234
0.000112838
0.000132562
0.000169657
3.13165e-05
0.000173557
8.02121e-05
2.73815e-05
0.000137514
0.000190818
0.000106971
0.00010307
0.000106374
0.000106559
0.000196288
0.000146907
0.000153469
0.000170619
4.88627e-05
0.000166656
8.68373e-05
0.000162125
0.000127436
5.82667e-05
0.000173042
0.00018682
0.000195505
0.000196469
5.30275e-05
0.00016931
0.00011576
0.00016472
0.000184878
4.72107e-05
3.65327e-05
0.000194545
6.34487e-05
8.1435e-05
9.37512e-05
0.000213468
0.000123553
0.000118671
9.18228e-05
0.000110293
0.000202175
6.83235e-05
9.71929e-05
0.000156644
0.000147238
0.000148686
0.000159284
0.000139036
0.00010007
0.000149466
3.86906e-05
7.16847e-05
0.00013454
2.53297e-05
0.000163463
0.000132037
0.000177724
5.19292e-05
0.00013653
8.70451e-05
7.04682e-05
4.99868e-05
2.61595e-05
0.000187969
0.00018234
7.44471e-05
9.27914e-05
0.000146536
0.00015296
0.000200308
8.90365e-05
6.66685e-05
0.000177366
0.000140439
0.000127938
0.000148203
9.39018e-05
9.77605e-05
0.000181217
7.80657e-05
0.000145306
9.38518e-05
6.76434e-05
5.32213e-05
0.000192698
9.67203e-05
5.05634e-05
7.82793e-05
7.82645e-05
9.8127e-05
7.82748e-05
0.000142395
0.000150308
0.000160888
0.000156951
4.23517e-05
0.000120992
2.88921e-05
8.83468e-05
0.000135469
0.000136913
0.000171954
0.000192603
7.13953e-05
4.72216e-05
0.000105462
0.000128742
5.1107e-05
0.000152394
8.36958e-05
0.000175424
0.000183904
5.01364e-05
6.44226e-05
0.00018092
0.000136474
2.89276e-05
0.000150156
8.48924e-05
0.000199373
0.00010291
0.000198392
0.000151069
0.000194699
0.000158591
0.000199686
0.000165694
0.000111376
7.25085e-05
9.22524e-05
4.20422e-05
7.49143e-05
0.000193577
4.9158e-05
0.000147164
0.000153223
0.000104646
5.58036e-05
0.000198004
7.7839e-05
9.00037e-05
9.91438e-05
5.01177e-05
9.48758e-05
0.000180017
0.000162986
8.70742e-05
7.07173e-05
7.5414e-05
6.96002e-05
8.85515e-05
8.21731e-05
0.000139476
8.53505e-05
2.70704e-05
6.25336e-05
0.000172932
0.000155002
0.000179047
0.000150231
3.03301e-05
4.83653e-05
4.03964e-05
0.000108565
8.11743e-05
5.686e-05
0.000163097
0.000191502
8.41431e-05
5.51656e-05
0.000138392
4.62408e-05
6.16972e-05
0.000149217
7.3195e-05
7.92413e-05
0.000179275
3.36605e-05
0.000168708
0.00015164
5.10086e-05
0.000194467
5.27288e-05
0.000160542
0.000138363
8.11075e-05
4.02842e-05
0.000113097
0.000174904
0.000144243
0.000157982
0.00016025
0.000176397
0.000159835
7.67222e-05
9.58352e-05
4.32171e-05
0.000114785
9.47285e-05
9.46491e-05
9.70342e-05
7.73298e-05
0.000140822
2.63599e-05
4.80712e-05
9.60602e-05
0.000130686
0.000195364
7.9238e-05
0.000139366
0.000102351
0.000176127
0.000124865
0.000201988
0.000188004
0.000177502
0.000171769
0.000138072
0.000154074
4.00015e-05
0.000191537
4.89553e-05
0.00010554
0.000187234
2.81616e-05
0.000151715
3.53391e-05
4.10673e-05
0.000205333
7.43815e-05
0.000200481
5.93055e-05
0.000166991
0.00018669
0.000119173
6.11866e-05
0.000121596
5.98322e-05
2.83947e-05
0.000136129
6.75556e-05
0.00016774
0.000196503
6.37351e-05
0.000122911
7.73137e-05
0.000159494
0.000147418
0.000196251
5.61372e-05
6.08105e-05
0.000144341
0.000152114
6.75189e-05
5.39965e-05
5.97163e-05
0.000111117
0.000139462
0.000117231
0.000131651
6.65706e-05
0.000174544
4.73923e-05
0.000148127
6.26301e-05
4.22433e-05
0.000122093
3.43794e-05
0.00012092
0.000150528
0.000173473
8.24035e-05
0.000135543
0.000104274
0.000126756
0.000178311
0.000145219
0.000126805
0.000125386
0.00019902
3.63351e-05
0.000160802
8.4146e-05
0.00012902
7.54236e-05
0.000156286
0.000193947
0.000155399
0.000118393
7.44385e-05
5.8864e-05
8.99534e-05
0.000121896
3.46144e-05
0.000109802
0.000127273
7.0576e-05
7.76214e-05
0.000175886
0.000145559
4.31923e-05
0.000123451
0.000133802
8.60482e-05
0.000130637
0.00012384
0.000156873
0.000129102
3.64312e-05
0.000117339
0.000104507
0.000112242
4.61041e-05
2.01087e-05
0.000160811
9.0978e-05
0.000145628
8.44682e-05
0.000102567
0.000172582
0.000127728
3.73279e-05
0.000106475
0.000167284
9.47785e-05
4.51564e-05
0.000101927
0.000180493
0.000112765
0.000108858
0.000159918
0.000199112
0.000203066
5.68385e-05
2.85229e-05
0.000106593