/*--------------------------------*- C++ -*----------------------------------*\
  =========                 |
  \\      /  F ield         | OpenFOAM: The Open Source CFD Toolbox
   \\    /   O peration     | Website:  https://openfoam.org
    \\  /    A nd           | Version:  8
     \\/     M anipulation  |
\*---------------------------------------------------------------------------*/
FoamFile
{
    version     2.0;
    format      ascii;
    class       surfaceScalarField;
    location    "0.4";
    object      phi;
}
// * * * * * * * * * * * * * * * * * * * * * * * * * * * * * * * * * * * * * //

dimensions      [0 3 -1 0 0 0 0];

internalField   nonuniform List<scalar> 
11624
(
-7.60067e-09
7.90322e-09
-8.80211e-11
-2.14532e-10
-6.94042e-09
-1.43399e-10
-5.16846e-10
-2.11139e-09
1.56274e-10
1.86251e-09
9.26074e-11
8.63617e-09
-7.51282e-09
2.00003e-09
-3.12338e-09
-5.60194e-09
5.41456e-09
-1.67048e-10
3.54425e-10
-4.78157e-09
3.88718e-09
8.65669e-10
2.87283e-11
-1.2347e-09
-3.4507e-10
-2.94747e-09
4.52724e-09
-1.3048e-09
2.53113e-09
3.03757e-09
-4.2639e-09
2.92298e-09
-2.25245e-09
-3.26534e-09
2.59481e-09
-3.12207e-09
-1.57721e-09
2.5028e-09
2.19648e-09
4.45064e-09
-4.36212e-09
1.08483e-10
-1.96998e-10
1.8677e-09
4.71413e-09
-2.06127e-09
-4.52056e-09
-2.74045e-09
-4.15816e-09
2.36666e-09
4.53194e-09
-3.71074e-09
4.5028e-09
-8.69981e-10
7.79291e-11
-1.67032e-09
4.26372e-09
-3.74267e-09
1.14926e-09
-3.82897e-09
2.62345e-09
-2.60612e-09
3.81164e-09
4.07876e-09
-4.00839e-09
6.7756e-12
-7.71447e-11
-3.38309e-09
4.16407e-09
-9.17513e-10
1.36531e-10
-2.72836e-09
3.67631e-09
-4.36934e-09
3.4214e-09
-3.13478e-09
-1.52786e-09
1.89739e-09
2.76526e-09
3.27768e-09
-3.61485e-09
3.52436e-10
-1.52597e-11
-3.58511e-09
4.3332e-09
-4.34038e-10
-3.1405e-10
4.63611e-09
-4.77592e-09
1.69355e-10
-2.95437e-11
5.61804e-09
-1.67369e-09
1.01228e-09
-4.95664e-09
4.51399e-09
-4.24123e-09
-2.14577e-10
-5.81843e-11
-4.66843e-09
1.25408e-09
4.1633e-09
-7.48948e-10
2.32618e-09
-3.80513e-09
-3.39241e-09
4.87136e-09
2.449e-09
-2.3091e-09
-3.057e-09
2.9171e-09
-2.77359e-09
3.46919e-09
-4.20811e-09
3.51252e-09
-5.66898e-09
4.4512e-09
-3.95847e-09
5.17624e-09
4.64245e-09
-2.15328e-10
8.6865e-11
4.54244e-09
-1.13629e-10
2.07294e-10
-4.52676e-09
4.41032e-09
1.4952e-10
-3.30854e-11
-5.09466e-09
4.36074e-09
7.16005e-10
1.79193e-11
4.69445e-09
-9.22852e-11
4.02863e-11
-8.84955e-11
1.23773e-11
-4.48945e-09
4.90003e-10
-2.41779e-10
-5.20233e-10
4.69756e-09
-5.24138e-09
1.06405e-09
-3.62487e-09
3.2106e-09
-3.04868e-10
2.17747e-10
-3.8584e-09
1.75747e-09
-1.17832e-09
3.27925e-09
2.56531e-09
-4.09224e-09
-2.49373e-09
4.02066e-09
-5.01809e-11
-1.13148e-10
8.06655e-09
2.96027e-10
-4.57044e-09
-5.01506e-10
5.24986e-09
-4.3763e-10
-5.99906e-09
1.18683e-09
1.96727e-09
-1.77244e-09
-2.89709e-09
2.70226e-09
-8.9167e-09
-2.87085e-10
2.26336e-09
3.13725e-09
9.2106e-10
-1.67353e-09
-2.38478e-09
8.38142e-09
-6.42582e-09
4.71729e-09
-6.6729e-09
4.13326e-09
-3.39245e-09
2.99179e-09
-3.73259e-09
-1.88202e-09
-5.10195e-10
2.80821e-10
3.95728e-09
-4.1458e-09
-4.9563e-09
5.14482e-09
1.02821e-09
-9.6218e-10
3.48348e-09
-3.54951e-09
-3.59586e-09
-1.03172e-09
4.5188e-09
1.08777e-10
3.13103e-09
4.8233e-09
-5.18387e-09
-2.77046e-09
6.6685e-10
-4.53784e-10
2.62302e-10
-4.75369e-10
1.82048e-09
-8.0032e-10
5.02161e-09
-6.04177e-09
-2.25042e-09
2.50918e-09
8.3774e-09
-5.19018e-09
1.49979e-09
-2.24775e-10
3.91517e-09
3.37984e-09
-3.61051e-09
7.57748e-10
-5.27079e-10
-2.96557e-09
3.74243e-09
2.99308e-09
-3.76994e-09
4.51562e-09
-4.15215e-09
-2.61509e-09
2.25161e-09
-7.13851e-10
1.38282e-09
-4.82694e-09
4.15797e-09
-7.00061e-09
5.96588e-09
-3.18903e-09
4.22375e-09
1.33722e-09
-5.84419e-10
-3.73183e-09
2.97902e-09
-2.23214e-10
2.4271e-10
-2.37533e-10
2.18037e-10
-1.83539e-09
4.18253e-09
-3.65193e-09
2.36206e-09
-3.99064e-09
3.43719e-09
-1.80861e-09
-4.43242e-09
3.00455e-11
3.88214e-09
2.20797e-10
2.29627e-10
-2.27267e-10
-2.23158e-10
2.77554e-09
6.97653e-09
-1.02681e-08
5.15987e-10
2.74667e-09
-2.80557e-09
-2.95862e-09
3.01751e-09
1.33309e-09
4.12035e-09
-9.3699e-10
-4.51645e-09
3.11585e-09
-3.05313e-09
-3.20262e-09
3.1399e-09
-1.04976e-09
8.30648e-11
1.50014e-09
-5.3345e-10
-4.60558e-09
-2.59937e-09
3.18848e-09
4.01647e-09
-2.74547e-09
-2.9449e-09
2.90668e-09
2.78368e-09
-4.6881e-09
4.61922e-09
-8.0452e-10
8.73398e-10
-5.09224e-09
-7.62096e-09
5.20039e-09
-2.8533e-09
2.74654e-09
3.06654e-09
-2.95977e-09
-1.42638e-09
3.22839e-09
-4.17666e-09
2.37465e-09
-1.91371e-09
2.51888e-10
-4.97875e-09
-1.45414e-09
1.84473e-10
-3.83316e-09
-1.41658e-09
1.7912e-10
-3.73859e-09
-1.38725e-09
1.75011e-10
-3.66415e-09
-1.6582e-09
2.13927e-10
-4.34546e-09
4.82214e-09
-5.02691e-09
4.16462e-10
-2.11691e-10
-2.03075e-09
2.6615e-10
-5.53751e-09
-1.44007e-09
1.79508e-10
-4.00325e-09
-1.52031e-09
1.88771e-10
-4.16343e-09
-1.71405e-09
2.16662e-10
-4.66594e-09
-1.31586e-09
1.60047e-10
-3.63251e-09
-2.2384e-10
2.62437e-10
1.95524e-10
-2.34122e-10
5.24599e-09
5.53641e-09
-8.03734e-09
-2.74507e-09
-3.9698e-09
2.60573e-09
3.72612e-09
-5.6807e-09
-5.07768e-09
4.28965e-09
6.46873e-09
-2.32847e-10
2.44498e-10
-2.39329e-10
2.27679e-10
9.24816e-10
-9.45561e-10
3.81022e-09
-3.78948e-09
4.72286e-09
6.39253e-09
-6.92112e-09
-4.19426e-09
6.34631e-09
7.76216e-09
-9.81659e-09
-4.29188e-09
-1.01793e-09
2.92292e-10
-4.17343e-09
4.89907e-09
2.47998e-09
2.49813e-09
-2.46026e-09
-2.51785e-09
-4.16896e-09
1.11056e-10
3.91021e-09
1.47693e-10
-3.64021e-09
2.17717e-09
-2.95537e-09
4.4184e-09
-3.4142e-09
-3.00524e-09
2.77923e-09
-2.56904e-09
2.06487e-09
5.2185e-09
-4.71433e-09
-2.32127e-09
2.97949e-09
-2.5707e-09
1.91247e-09
8.7954e-11
3.64157e-09
3.49243e-10
2.38384e-09
3.18344e-09
-4.63089e-09
-9.36389e-10
-3.86856e-10
1.4375e-09
-1.57004e-09
5.19391e-10
3.80133e-09
4.91669e-10
-3.56885e-09
-7.24148e-10
-1.08348e-10
-3.8724e-09
-5.08708e-10
3.23382e-09
-3.49126e-09
4.27773e-09
-4.02029e-09
-2.71047e-09
5.74371e-10
4.61413e-09
-2.47804e-09
2.42595e-09
8.4331e-09
-1.27764e-09
-9.58141e-09
3.46391e-09
7.91127e-09
-8.94923e-09
5.06921e-09
7.71041e-10
-1.01811e-09
-3.52033e-10
3.35724e-10
8.44941e-09
-3.39097e-09
-2.94409e-09
2.52993e-09
-1.09496e-09
6.72535e-10
1.44096e-09
-1.01854e-09
4.36327e-10
-1.03322e-10
4.23846e-09
-4.57146e-09
-3.97017e-10
6.57977e-10
-2.22564e-09
1.96468e-09
1.37655e-09
-3.80095e-09
3.6669e-09
-1.2425e-09
1.40489e-09
-1.17168e-09
2.68978e-09
2.77434e-09
-2.9761e-09
3.13685e-09
-2.93509e-09
4.51616e-09
9.29324e-09
-2.99297e-09
-1.08164e-08
-1.95171e-09
-2.46046e-09
3.00592e-09
1.40625e-09
1.05455e-09
4.18821e-09
-2.83814e-09
-2.40462e-09
1.06631e-10
-2.12669e-10
-1.86318e-09
1.96921e-09
2.93203e-09
3.37295e-09
-3.73968e-09
3.63514e-10
-6.49104e-10
4.49995e-09
-4.21436e-09
6.86343e-11
3.03979e-09
3.98973e-10
-3.50739e-09
2.95279e-09
-2.61127e-09
-2.66279e-09
-5.9003e-09
-5.67966e-09
5.89927e-09
8.79718e-11
1.54749e-10
-5.02588e-11
-1.92462e-10
6.48863e-09
-9.13896e-10
-1.88957e-10
-5.38577e-09
-4.97655e-09
-9.32991e-10
5.41832e-10
5.36771e-09
3.46424e-09
-4.74103e-09
-3.71399e-09
4.99077e-09
2.15896e-09
-4.05415e-09
-2.79291e-09
3.66302e-09
-3.88594e-09
-1.20346e-09
3.34724e-09
3.27792e-09
-3.39134e-09
4.41932e-09
-3.5389e-09
-5.75309e-09
4.87267e-09
1.73022e-09
-3.83292e-09
3.47925e-09
-4.78478e-09
-3.16194e-09
2.27775e-09
-2.13111e-09
7.66664e-10
1.45766e-09
-9.32099e-11
-3.6424e-09
-2.41919e-09
4.05608e-09
2.00551e-09
2.33934e-09
-3.17941e-09
3.39318e-09
-2.55312e-09
2.44204e-10
-2.50614e-10
2.29005e-10
-2.22595e-10
-3.96404e-09
3.93766e-09
-3.78572e-09
3.8121e-09
7.47909e-09
1.551e-09
-2.77616e-09
-6.25394e-09
-3.13437e-09
2.3226e-09
-3.4133e-09
4.22507e-09
3.31083e-09
-7.66943e-09
9.08145e-09
4.16668e-10
-7.64405e-10
-2.3996e-09
2.74734e-09
-2.26269e-10
3.84153e-09
-3.76213e-09
1.4687e-10
5.17906e-09
-4.23227e-09
-7.14988e-10
-2.31809e-10
-1.58499e-09
-3.9234e-09
1.99304e-09
3.51535e-09
-6.68404e-09
-5.61561e-10
7.2456e-09
-1.61929e-09
2.76789e-10
1.49222e-09
-1.49722e-10
-6.54879e-10
-3.56514e-09
6.04809e-10
3.61521e-09
-4.38425e-09
-3.9582e-09
4.47689e-09
3.86556e-09
-4.22812e-09
-4.40844e-09
2.88332e-09
5.75324e-09
5.44634e-09
-6.73016e-09
7.92041e-09
-6.63659e-09
8.64011e-10
-4.08121e-09
4.14201e-09
4.55055e-09
-3.61442e-09
3.76143e-09
-2.40805e-10
-2.25794e-10
2.36441e-10
2.30158e-10
-4.07364e-09
3.82148e-09
2.61639e-10
-9.47967e-12
4.59389e-09
-4.25401e-09
2.88982e-10
-6.28862e-10
4.6962e-09
-4.32541e-09
3.32518e-10
-7.03307e-10
4.50384e-09
-4.17002e-09
2.82491e-10
-6.16314e-10
3.11164e-09
-3.51403e-09
-8.64082e-10
1.26647e-09
-4.42407e-09
4.44615e-09
-1.05848e-12
-2.10216e-11
2.88783e-09
-3.03183e-09
2.99045e-09
-2.84645e-09
-4.77942e-10
3.90702e-09
7.90325e-10
-4.21941e-09
2.31211e-10
-2.66072e-10
2.38096e-10
-2.03235e-10
-1.4729e-08
1.61219e-08
-6.98913e-09
5.5963e-09
4.38428e-09
-4.68797e-09
-8.16298e-11
3.85322e-10
-2.79744e-09
-2.93751e-09
2.15803e-09
3.57692e-09
2.45846e-09
-2.30795e-09
3.22393e-09
-3.37444e-09
-8.03632e-09
-8.47975e-09
8.7267e-09
7.78936e-09
2.82176e-09
-3.06829e-09
7.66611e-09
-8.51901e-09
-6.93464e-09
7.78754e-09
-2.40446e-09
2.12394e-09
-2.81588e-09
3.09641e-09
-7.17549e-11
3.19645e-11
-5.42121e-09
4.55093e-09
-2.57828e-10
1.12811e-09
3.83547e-09
-2.12194e-09
1.8507e-09
-3.56423e-09
-2.54886e-09
3.74349e-09
2.12424e-09
-3.31888e-09
-3.02068e-09
-8.32651e-11
5.36657e-10
2.56729e-09
3.87607e-09
-6.09257e-10
-3.9217e-09
4.27907e-09
-4.05593e-09
-3.40648e-09
3.18334e-09
-3.84467e-09
4.2259e-09
7.70743e-11
-4.58302e-10
-3.91577e-09
4.31113e-09
7.91847e-11
-4.74543e-10
-3.25514e-09
3.95339e-09
7.06973e-10
-1.40522e-09
-2.81881e-09
3.09799e-09
-2.75915e-09
2.47997e-09
-3.35248e-10
8.20639e-09
-7.87115e-09
-8.7728e-12
-3.72781e-09
-2.71813e-10
-2.63618e-10
2.80593e-09
7.68939e-10
-3.31126e-09
2.85381e-10
-3.05389e-10
2.39395e-09
-4.35247e-10
5.78071e-10
-2.53677e-09
4.45142e-09
-1.64558e-11
1.11919e-11
4.48285e-09
-4.41498e-09
-1.1157e-12
-6.6753e-11
3.91947e-09
-3.83838e-09
-3.81458e-11
-4.29466e-11
3.69656e-09
-3.55362e-09
-4.7585e-09
4.61556e-09
2.13384e-10
-1.64674e-10
-2.16068e-10
1.67357e-10
3.53717e-09
1.20519e-09
-2.38524e-10
3.69904e-09
1.24699e-09
-2.49836e-10
3.60756e-09
1.22931e-09
-2.4298e-10
-4.37106e-09
5.19005e-09
-1.03227e-09
2.13291e-10
4.88467e-09
-4.82419e-09
-2.42779e-10
1.82295e-10
-1.27416e-09
1.33304e-09
7.74649e-10
-8.33529e-10
-2.25715e-09
-4.46568e-09
3.56756e-09
3.15527e-09
-4.85284e-09
4.34155e-09
8.25609e-10
-3.14313e-10
5.8019e-09
8.56066e-11
-1.00284e-09
3.71463e-09
4.61561e-09
-3.98799e-09
-4.34226e-09
-3.87692e-09
2.7854e-10
3.61617e-09
-1.77899e-11
4.40475e-09
-4.39265e-09
-1.81985e-11
6.09843e-12
-3.80671e-09
3.81134e-09
1.25199e-11
-1.71541e-11
-3.90105e-09
3.90581e-09
1.27992e-11
-1.75577e-11
-3.73225e-09
3.73678e-09
1.23305e-11
-1.68562e-11
1.1891e-09
-2.40041e-10
3.54352e-09
3.62316e-09
-5.22264e-09
-1.94403e-09
4.9023e-09
-4.58045e-09
-2.34477e-10
-8.73708e-11
-4.36586e-09
3.86453e-09
2.66029e-09
-5.74328e-09
5.4789e-09
-2.29895e-10
4.94275e-10
-4.33293e-09
-7.17915e-10
3.62869e-10
-1.55683e-09
-8.78534e-10
1.16121e-09
4.36023e-09
-1.9056e-10
-2.50197e-10
4.73966e-09
-4.72915e-09
1.66728e-11
-2.71776e-11
-4.34483e-09
4.38316e-09
-4.25094e-11
4.17888e-12
-3.73391e-09
3.78645e-09
-9.02833e-11
3.77458e-11
-3.82663e-09
3.88032e-09
-9.26521e-11
3.89707e-11
-3.66082e-09
3.71242e-09
-8.83484e-11
3.67518e-11
3.34381e-09
-3.35651e-09
-5.81623e-10
5.94322e-10
5.35327e-09
2.91312e-10
-1.16173e-09
2.72415e-09
-3.37763e-09
2.99283e-09
-2.98579e-09
2.35787e-09
2.95051e-09
5.54445e-09
-4.71751e-09
-5.22962e-11
-7.74642e-10
4.01735e-09
2.46941e-10
-9.20482e-10
6.42253e-09
-6.24642e-09
-6.44066e-10
4.67959e-10
3.9121e-09
-3.99989e-09
-4.95329e-11
1.37326e-10
2.87533e-11
-5.82699e-11
3.34281e-09
-3.38453e-09
-7.87647e-11
1.20483e-10
3.4261e-09
-3.46848e-09
-8.24295e-11
1.24807e-10
3.27734e-09
-3.31869e-09
-7.63178e-11
1.1767e-10
3.28272e-10
5.40875e-10
-5.89606e-09
-3.8476e-09
4.32454e-09
-5.43418e-10
6.6475e-11
-3.94502e-09
4.43285e-09
-5.54899e-10
6.70681e-11
-3.77216e-09
4.23989e-09
-5.32667e-10
6.49374e-11
-4.56985e-09
7.98012e-11
-9.31162e-10
4.16655e-09
-1.18862e-09
-3.92349e-09
-2.87724e-09
-2.84837e-09
3.07269e-09
2.65292e-09
4.26845e-10
-1.52055e-10
-6.28795e-10
3.54005e-10
2.917e-09
-3.88729e-09
4.66684e-09
9.73134e-10
-1.9807e-10
3.56053e-09
-1.05886e-10
1.52918e-10
3.6502e-09
-1.09886e-10
1.58727e-10
3.49078e-09
-1.03572e-10
1.49968e-10
4.52032e-09
-7.31229e-11
4.22023e-12
-2.26302e-10
1.7677e-10
8.44725e-10
-1.65473e-10
-3.95779e-09
3.61054e-11
-4.03719e-10
4.40256e-09
-4.39115e-09
1.1558e-11
-2.29753e-11
-3.90322e-09
2.19417e-10
-4.86216e-10
-3.98133e-09
2.23643e-10
-4.96321e-10
5.73302e-09
-5.11236e-09
2.36692e-11
-6.4433e-10
-4.39674e-09
4.40432e-09
1.55949e-11
-2.31704e-11
-4.92697e-10
2.11313e-10
-5.12897e-10
2.18075e-10
-5.02541e-10
2.15465e-10
-3.80228e-09
3.81638e-09
3.31618e-12
-1.74165e-11
-3.89649e-09
3.91092e-09
3.36927e-12
-1.78006e-11
-3.72788e-09
3.74172e-09
3.28406e-12
-1.7121e-11
-4.98452e-09
5.06188e-09
-1.19577e-10
4.22149e-11
-3.63983e-09
3.86586e-09
-3.92386e-10
1.66354e-10
5.14183e-09
3.90953e-09
-5.33673e-09
2.69857e-09
3.34151e-09
-3.47872e-09
-2.56136e-09
-4.14534e-09
4.18483e-09
-2.61522e-11
-1.33385e-11
-3.6357e-10
2.3605e-09
-3.42612e-09
3.64657e-09
4.44548e-11
-2.64907e-10
4.54127e-09
-4.14536e-09
-2.91999e-11
-3.6671e-10
-3.6279e-09
3.65642e-09
-1.57878e-11
-1.27325e-11
4.99915e-09
6.72681e-10
-1.92931e-10
4.03435e-09
-4.0154e-09
-2.96718e-11
1.07289e-11
4.76351e-09
-4.2351e-09
6.78668e-11
-5.96274e-10
3.02055e-09
-4.07903e-09
3.57995e-09
-2.52146e-09
-3.64316e-09
4.15357e-09
7.06764e-11
-5.81086e-10
6.15482e-09
1.9855e-09
-4.3182e-09
-3.82212e-09
-4.02905e-09
4.05798e-09
-1.35541e-11
-1.53756e-11
-4.72299e-09
4.62535e-09
-5.84632e-11
1.561e-10
-6.42818e-10
4.00561e-09
4.61431e-10
-3.82422e-09
-9.27254e-10
5.0024e-09
-2.64928e-10
3.8118e-09
-2.91295e-09
3.08554e-09
-3.98439e-09
2.74869e-09
-4.15596e-09
3.41681e-09
-2.00953e-09
-3.61039e-09
-1.81025e-10
-5.73782e-10
4.43964e-10
3.93115e-09
4.50932e-09
-3.87315e-09
1.7271e-12
-6.37899e-10
-4.90999e-09
4.81706e-09
-9.77639e-11
1.90698e-10
-3.1301e-10
2.51471e-10
6.15391e-11
3.24273e-09
-3.25059e-09
-6.4704e-11
7.2561e-11
3.93588e-09
-3.82813e-09
2.41587e-10
-3.49334e-10
-3.57834e-09
-3.05275e-09
2.66705e-09
5.61794e-09
-5.79312e-09
2.05087e-10
-2.99062e-11
-3.78775e-09
-9.93092e-11
4.23842e-11
-1.50665e-10
9.26847e-11
1.47082e-10
-8.91016e-11
5.9538e-09
-4.94101e-09
1.89469e-10
-1.20226e-09
4.21158e-09
2.01532e-10
-5.01014e-10
-4.3522e-09
4.72626e-09
-7.19208e-12
-3.66868e-10
3.81884e-09
-5.17497e-10
-2.40047e-11
3.99413e-09
-5.41998e-10
-2.60306e-11
3.89602e-09
-5.28165e-10
-2.50461e-11
5.12271e-09
-5.30604e-09
3.68877e-10
-1.85544e-10
-4.74812e-10
9.18749e-11
-1.77719e-10
5.60656e-10
-3.84892e-09
-1.20088e-10
5.32358e-11
6.28141e-10
-1.92634e-09
-5.85149e-10
1.88335e-09
-3.00574e-09
3.48959e-09
3.06059e-10
-7.89915e-10
4.61989e-09
-1.6268e-09
-2.99308e-09
-4.36558e-10
4.23577e-09
8.30205e-10
-4.62941e-09
5.56746e-09
-5.58949e-09
-3.33366e-12
2.53598e-11
-5.79361e-09
5.74494e-09
-9.8558e-11
1.47223e-10
-3.80468e-09
3.88424e-09
4.12112e-10
-4.23465e-09
-2.9679e-10
1.79236e-10
3.9828e-09
2.27982e-10
-3.77445e-09
-2.36943e-09
2.34032e-09
3.00861e-09
-5.8312e-09
-7.77854e-10
3.62631e-10
1.61483e-10
-6.39809e-11
-5.56588e-09
6.38488e-09
1.85577e-10
-1.00458e-09
3.24555e-09
-3.63531e-09
-1.4158e-10
-2.94398e-10
-2.92053e-09
4.21974e-10
4.02436e-09
2.59767e-12
-8.71252e-11
3.65551e-09
-3.64812e-09
7.85253e-12
-1.52419e-11
4.89916e-09
-3.79439e-10
-4.48784e-09
-3.18754e-11
4.13497e-09
-3.23934e-10
-3.79527e-09
-1.57629e-11
4.21853e-09
-3.3022e-10
-3.87104e-09
-1.72717e-11
4.32459e-09
-3.38159e-10
-3.96706e-09
-1.93733e-11
5.60732e-09
-4.32295e-10
-5.12377e-09
-5.12503e-11
5.32033e-09
-7.76517e-10
3.58486e-10
4.02874e-09
-3.9667e-09
-6.70867e-11
5.04761e-12
3.66196e-09
-1.24258e-10
7.7343e-10
3.59051e-09
-1.2277e-10
7.58159e-10
-1.36048e-10
3.21062e-10
-4.25865e-09
-6.91827e-09
7.87229e-10
-6.66492e-11
6.19769e-09
4.40973e-09
-3.41656e-12
-1.56052e-12
-3.64928e-09
3.65844e-09
1.00364e-11
-1.91874e-11
2.74685e-09
-3.12783e-09
3.68073e-09
-3.29976e-09
4.74101e-09
-4.70088e-09
-1.66236e-11
-2.35029e-11
-4.03471e-09
-7.43412e-12
1.3099e-11
-3.42815e-10
4.10971e-09
-3.87057e-10
4.23084e-09
-4.1903e-09
-1.90616e-11
-2.14829e-11
-2.09862e-10
7.66135e-11
-2.30808e-10
3.88827e-10
-2.40169e-10
4.07664e-10
-2.3507e-10
3.97179e-10
-4.36442e-10
2.4468e-12
4.02451e-09
-4.45502e-10
2.1349e-12
4.10533e-09
-4.59803e-09
4.66588e-09
-1.25415e-10
5.75727e-11
5.02042e-09
3.26386e-11
-5.39094e-11
4.61147e-11
-1.02096e-10
-3.70615e-09
2.94016e-10
6.69988e-10
-3.99828e-09
-4.43442e-11
6.16504e-10
8.2715e-10
-2.76115e-10
8.62232e-10
5.8965e-11
9.02813e-10
6.15595e-11
8.79686e-10
6.03314e-11
3.80179e-09
-3.80058e-09
-3.38117e-09
3.09236e-09
-2.94407e-09
3.23288e-09
-5.8736e-09
-5.07839e-10
5.47839e-09
9.0305e-10
-4.95363e-09
4.99674e-09
-4.12642e-11
-1.84903e-12
-2.2276e-11
1.2788e-11
-2.11544e-10
-4.43536e-09
-2.70857e-11
7.25485e-12
-2.83933e-11
7.65647e-12
-2.76803e-11
7.42236e-12
5.44255e-09
-5.41696e-09
-2.30438e-11
-2.54039e-12
3.24094e-09
-2.97546e-09
-3.07656e-09
2.81109e-09
-3.68476e-09
-2.85418e-10
1.88003e-11
3.95138e-09
-9.24101e-10
3.7864e-10
3.66839e-09
-3.1014e-09
-4.87389e-09
5.22898e-09
-6.98376e-10
3.43277e-10
3.79664e-09
-4.56016e-10
-9.78892e-11
4.09891e-09
2.2553e-11
-6.34827e-11
3.15404e-09
-3.54249e-09
-2.99271e-09
-9.98556e-11
1.42332e-10
-1.1576e-10
7.32837e-11
-3.8191e-09
3.88392e-09
-5.90326e-11
-5.78208e-12
-3.91371e-09
3.98009e-09
-6.05601e-11
-5.82547e-12
-3.7444e-09
3.80797e-09
-5.78698e-11
-5.70512e-12
-3.3118e-09
3.85111e-09
2.82354e-09
-3.36285e-09
-3.13848e-09
-2.00871e-09
3.99388e-09
-6.87786e-11
5.84217e-10
-3.34976e-10
4.88454e-10
-2.30136e-10
3.92535e-09
7.13022e-10
-4.40823e-09
1.37164e-09
-1.35348e-10
7.12696e-10
3.9694e-10
3.74569e-09
-2.70074e-10
1.06565e-09
3.48413e-09
-1.61181e-10
8.30621e-10
-4.7094e-11
1.04434e-10
2.9422e-10
-3.51559e-10
-5.59077e-09
-4.47134e-10
2.09304e-11
6.01698e-09
-1.22217e-10
7.5767e-11
-4.69596e-09
4.70422e-09
2.23369e-11
-3.06005e-11
3.97649e-09
-1.81238e-10
9.6826e-10
-4.01342e-10
1.60117e-10
-5.37443e-10
3.80766e-09
-4.47108e-09
1.20086e-09
-3.81217e-09
3.90056e-09
-6.62175e-10
-6.3593e-11
4.08167e-09
4.18291e-09
-5.21288e-09
4.40021e-09
-3.37024e-09
4.7832e-09
-6.28158e-10
-1.20696e-10
9.79992e-10
-1.26874e-10
5.0937e-10
-6.60922e-11
3.79928e-09
-4.94808e-09
1.95644e-09
-8.07639e-10
-2.5326e-09
-5.97548e-09
5.91428e-09
2.5938e-09
-4.39075e-09
4.37955e-09
-1.07026e-12
1.2264e-11
-5.13429e-09
1.7112e-09
5.29079e-09
1.70765e-10
-8.06808e-11
8.11015e-11
-1.71185e-10
-5.92606e-09
-2.95854e-09
6.352e-09
-3.9139e-09
3.48859e-09
6.37108e-10
-2.11803e-10
-3.7449e-09
3.33779e-09
6.09748e-10
-2.02645e-10
-3.81939e-09
3.40424e-09
6.21811e-10
-2.06661e-10
-3.76888e-09
3.99132e-11
-6.33157e-10
-2.4401e-09
-2.30905e-09
-1.98375e-09
-5.07366e-09
2.69155e-09
5.1824e-09
-1.19494e-09
1.13525e-09
-3.20143e-09
-3.41478e-09
3.88784e-09
1.23345e-10
2.27961e-10
-1.80541e-10
-3.65359e-09
-4.44701e-12
8.75381e-12
-1.49511e-10
5.74584e-12
-7.50886e-09
5.94942e-09
-4.34086e-09
-3.65496e-09
3.924e-09
-2.65359e-10
-3.67953e-12
-4.1298e-09
4.53166e-09
-3.88735e-10
-1.31177e-11
-4.09953e-09
4.30503e-09
3.25874e-09
2.71737e-09
-2.13401e-09
1.05814e-10
-1.17471e-11
1.80985e-10
2.96268e-10
-2.63869e-10
-4.84417e-09
5.39155e-09
-5.58043e-10
1.06626e-11
3.92734e-09
-5.12485e-09
-7.16701e-11
1.77528e-10
3.15309e-09
-5.4794e-09
4.99278e-09
-2.66647e-09
-4.33046e-09
4.81933e-09
-4.97799e-10
8.92778e-12
-6.50947e-09
6.88774e-09
-7.88714e-09
-6.07259e-12
8.89681e-12
4.74312e-09
-2.0157e-10
1.19146e-09
-1.74888e-10
6.0337e-12
9.32977e-12
-4.33339e-13
9.70281e-12
-3.84825e-13
9.48592e-12
-4.28243e-13
-4.62795e-09
-7.46153e-10
2.79438e-10
4.65246e-10
-1.29434e-10
6.99144e-10
-1.07868e-10
-4.2221e-12
-2.06282e-10
1.64658e-12
1.01697e-11
3.40122e-09
3.18693e-09
-2.30194e-09
-4.2862e-09
-5.44919e-09
5.88194e-09
-4.5024e-10
1.74923e-11
3.81507e-09
2.23984e-09
-2.21944e-09
3.66129e-09
6.1529e-11
-7.62512e-11
3.97212e-10
2.12738e-10
-8.39135e-11
6.05997e-11
3.38244e-09
3.37256e-09
-3.08662e-09
7.25484e-12
5.72994e-12
-2.06489e-09
1.71917e-09
3.06987e-09
3.86894e-09
1.38412e-10
-4.00735e-09
-3.89248e-09
3.3983e-09
7.15559e-10
-2.2138e-10
1.63345e-11
-1.90159e-11
1.7044e-11
-1.98273e-11
1.66422e-11
-1.93639e-11
1.13767e-10
-1.64245e-10
-4.21335e-09
3.75629e-09
6.81835e-10
-2.24781e-10
-4.28274e-09
7.21016e-10
-1.83177e-10
-4.47692e-09
7.54617e-10
-1.91596e-10
-4.36833e-09
7.35825e-10
-1.86885e-10
4.06543e-09
-6.99435e-11
3.32561e-11
3.67621e-09
-7.48512e-10
-4.82568e-09
1.89799e-09
-4.70932e-09
4.19797e-09
7.60144e-10
-2.48795e-10
-1.09617e-11
4.49866e-10
-2.00582e-10
-2.27961e-10
2.63869e-10
4.25806e-09
-6.27232e-11
3.55002e-11
1.0772e-09
-3.67174e-09
-1.00132e-09
1.13915e-11
1.77926e-12
7.71967e-11
-4.87441e-11
4.17614e-09
-4.65472e-09
7.11688e-10
-2.33105e-10
-8.22785e-09
4.55449e-09
7.13727e-09
4.76569e-09
-6.43852e-11
3.97019e-11
-4.31704e-09
-2.05439e-11
4.6524e-12
-4.4806e-09
-1.75203e-10
-4.01521e-11
5.01115e-10
-3.15948e-10
5.96627e-11
-1.24036e-10
7.11483e-11
-1.71987e-10
3.64745e-09
-1.18011e-11
1.98634e-11
1.24067e-11
-1.78698e-11
7.52467e-11
-1.47644e-10
3.46794e-10
-3.42961e-10
3.46352e-09
4.9679e-09
-4.61962e-09
8.44244e-11
-1.62903e-10
1.26187e-11
4.72024e-10
-4.38363e-10
-4.62804e-11
4.49841e-11
-5.24906e-11
8.8444e-10
-2.4526e-10
5.43587e-09
1.02611e-11
-3.58661e-12
4.00342e-09
-4.25828e-09
4.19253e-09
8.09092e-10
-2.03107e-10
4.86905e-09
1.52006e-10
1.46757e-09
4.54657e-10
-1.46147e-10
8.85916e-12
-4.38679e-11
-3.12145e-12
-2.18118e-11
3.00386e-09
3.14555e-09
-2.77836e-09
-3.37105e-09
-7.42983e-09
8.28567e-09
7.76723e-09
-8.62307e-09
4.27642e-10
-3.96029e-10
-1.89942e-11
1.34228e-11
-3.11103e-12
-5.38616e-09
5.2764e-09
1.57375e-10
-4.76138e-11
5.09064e-11
-6.42241e-11
9.07282e-10
-2.25046e-10
2.31965e-10
3.5127e-10
-3.46794e-10
-5.53181e-09
5.93307e-09
-4.7306e-10
7.18e-11
-6.10376e-09
-1.05372e-09
1.65592e-09
5.50156e-09
8.25439e-11
-2.7052e-10
-3.81045e-09
2.39205e-09
3.87694e-09
-2.45853e-09
3.13392e-09
-1.44454e-10
9.34533e-10
-2.3431e-09
2.66312e-09
-6.29549e-09
1.8846e-09
4.54724e-09
-2.5133e-09
-3.91854e-09
-7.32102e-11
4.97381e-11
3.89414e-09
-4.23522e-09
-3.01684e-09
3.35792e-09
4.07178e-09
-1.70347e-10
4.82319e-09
-1.91873e-10
1.25062e-09
-4.45241e-09
2.66411e-09
2.8289e-09
-1.04061e-09
3.40863e-09
8.90015e-12
-2.83608e-10
3.00565e-09
-2.9127e-09
2.4442e-09
-2.53715e-09
-5.03593e-09
3.24645e-10
-8.20533e-10
3.85961e-09
-3.93857e-09
1.7425e-09
-2.69195e-10
-1.72124e-09
2.47928e-10
3.12766e-09
2.88461e-09
-2.33076e-09
-3.68151e-09
-7.12633e-09
2.7376e-09
-2.61188e-09
-4.04364e-09
-2.94656e-09
3.85962e-09
3.13058e-09
4.67528e-09
-3.42953e-09
2.15546e-09
3.66987e-09
3.45607e-09
-2.59712e-09
-2.3039e-09
1.96351e-09
5.31635e-09
8.38969e-11
-5.77052e-10
-4.04607e-09
4.65956e-10
-4.30797e-09
4.71277e-11
4.20186e-09
5.898e-11
-3.46415e-09
2.8549e-09
-2.42258e-09
2.41179e-10
-3.3588e-10
3.2486e-10
2.01415e-09
-2.85323e-09
-8.60608e-11
-4.17763e-09
3.86769e-10
4.33088e-10
-3.71739e-09
-5.67447e-09
4.77379e-09
-2.25029e-09
3.15097e-09
3.73966e-09
-3.69355e-09
-2.76843e-09
-5.87814e-09
7.07992e-09
1.56666e-09
2.28742e-09
-9.6445e-12
-3.73046e-11
4.74591e-10
-2.43267e-09
-6.08436e-09
5.66708e-09
2.84995e-09
8.04922e-10
3.46787e-09
-3.47898e-09
-7.93814e-10
-5.65981e-09
-2.60935e-09
-1.092e-09
-7.0488e-09
5.97498e-09
2.16582e-09
-1.81215e-09
1.72132e-09
1.16289e-09
-3.84186e-09
4.96742e-09
-2.28845e-09
1.42545e-09
-1.33595e-09
-3.22429e-09
-7.0578e-11
-5.22622e-09
9.3824e-10
4.35856e-09
-4.26467e-09
6.23955e-09
-6.35913e-09
-4.41092e-09
1.7642e-09
3.80961e-09
3.8018e-09
5.78274e-09
-6.47711e-09
-3.10743e-09
5.56297e-10
-3.32023e-09
2.55828e-10
-6.44436e-10
-2.5941e-09
2.68286e-09
-3.11566e-09
3.0269e-09
2.15311e-09
-2.94518e-09
-1.66839e-09
-3.8615e-09
-2.65998e-09
4.26432e-09
-1.92029e-10
5.81305e-09
7.09132e-10
-6.33015e-09
3.80058e-09
-3.85961e-09
-3.5912e-09
-3.319e-09
3.59677e-09
-5.63232e-09
5.35456e-09
5.14379e-09
-3.93106e-09
-5.17094e-09
-3.25404e-09
3.23212e-09
3.69179e-09
-4.03023e-09
6.16437e-11
4.05095e-09
-8.23696e-11
3.1626e-09
1.76207e-10
-3.49295e-09
1.54135e-10
5.95258e-09
-2.80673e-09
-2.4469e-09
2.69731e-09
-1.7711e-09
-4.89459e-09
7.92092e-10
4.21105e-10
4.74285e-09
-1.06845e-09
4.98479e-09
-4.0774e-09
2.20789e-09
-3.11528e-09
1.68624e-10
-2.86707e-11
-9.16339e-09
2.27375e-09
-1.89086e-09
8.7805e-09
-2.48318e-09
2.74801e-09
-3.5013e-12
-9.19976e-10
-5.35239e-09
6.27587e-09
-2.82207e-12
-4.68972e-09
-7.99599e-10
5.49214e-09
-4.59501e-12
-6.70594e-10
-3.96537e-09
4.64056e-09
-4.5127e-12
-7.02332e-10
-4.14476e-09
4.85161e-09
-4.5789e-12
-6.84581e-10
-4.0445e-09
4.73366e-09
3.65197e-09
-3.55789e-09
7.41193e-11
-1.68196e-10
3.81725e-09
-3.71944e-09
7.79503e-11
-1.75762e-10
3.72483e-09
-3.62911e-09
7.58096e-11
-1.71536e-10
2.30981e-09
-2.32855e-09
3.64343e-09
-3.62468e-09
-2.62563e-09
-3.24181e-09
3.42054e-09
2.74073e-10
-3.38342e-09
1.03615e-10
-3.4223e-09
7.82735e-10
-9.99126e-10
3.63869e-09
3.81682e-10
3.94652e-09
-3.67811e-09
3.71435e-09
-2.85992e-10
4.41852e-09
-4.36267e-09
3.17129e-09
-3.23384e-09
3.40979e-09
-6.34297e-10
-2.7973e-09
2.83426e-09
5.9733e-10
-3.67305e-09
3.82714e-09
-5.90652e-10
2.86261e-09
-5.89187e-09
7.36886e-09
-4.3396e-09
3.90373e-10
-4.80167e-09
-6.16167e-11
3.58353e-09
4.95443e-10
7.8564e-09
-6.98466e-09
-2.44205e-09
-2.51434e-09
-6.08184e-09
2.79749e-09
8.18943e-09
-1.40801e-10
-8.39482e-09
3.46195e-10
-8.74644e-10
-4.06939e-09
1.27098e-09
9.81746e-11
-1.72572e-10
-9.26041e-11
1.67002e-10
2.66494e-10
5.13391e-09
1.1444e-09
-6.5448e-09
-1.82474e-09
-3.95702e-10
2.33632e-09
-1.15881e-10
-1.84987e-09
2.79608e-09
4.75957e-09
-4.27773e-09
-3.75079e-09
-3.73787e-10
-2.18745e-12
4.12677e-09
-2.39352e-10
-3.32042e-10
3.38547e-10
-1.19543e-09
-3.89881e-09
1.29329e-09
6.96704e-09
-2.59191e-09
-6.59238e-09
2.21725e-09
5.17129e-09
2.55664e-10
-6.447e-09
1.02005e-09
4.12858e-09
5.05795e-10
-4.63437e-09
-2.94134e-09
5.57268e-09
2.52521e-09
-5.15655e-09
-2.39515e-10
1.62277e-10
3.58558e-09
2.96384e-09
-3.19012e-09
-3.3593e-09
5.49803e-09
-7.26912e-09
-2.35091e-09
5.4593e-10
2.70271e-09
-8.97728e-10
3.78819e-09
-3.56252e-09
1.11436e-10
-3.37104e-10
-2.42001e-09
3.64762e-09
3.56995e-09
-4.79755e-09
-2.24684e-09
3.51814e-09
3.35775e-09
-4.62905e-09
-2.7107e-09
4.06813e-09
4.00521e-09
-5.36264e-09
-2.10506e-09
3.19811e-09
3.10633e-09
-4.19938e-09
2.41239e-10
-4.13012e-09
4.32342e-09
-4.34538e-10
-3.10662e-09
4.79695e-09
4.66374e-09
-6.35408e-09
3.74736e-09
5.53316e-09
-4.34417e-09
-4.93636e-09
-3.10598e-09
6.93698e-09
3.13604e-09
-4.61556e-09
4.61962e-09
-3.12071e-10
3.33355e-10
-1.20412e-12
-4.89191e-09
4.86847e-09
2.46497e-11
1.4935e-09
-3.60464e-09
-1.84737e-09
3.95851e-09
6.33578e-09
-2.53496e-09
-6.39274e-09
4.09686e-09
-3.99775e-09
8.31694e-11
-1.82279e-10
2.23188e-10
4.18307e-10
-2.23228e-09
-3.18614e-09
2.97369e-09
2.44473e-09
3.62972e-09
-5.38983e-09
-3.77335e-09
5.53346e-09
-1.38267e-10
6.00647e-10
-8.0264e-12
-3.2915e-11
3.44387e-10
-3.03446e-10
-3.57096e-09
3.56029e-09
9.58307e-12
1.09374e-12
-3.32584e-09
3.76466e-09
-3.93008e-09
5.27129e-09
2.47115e-09
-5.48339e-09
-2.25905e-09
3.31309e-09
5.70557e-09
-2.96335e-09
-2.98203e-09
3.4622e-09
-4.12847e-09
-8.26388e-10
1.47534e-09
3.47952e-09
-5.29118e-09
-1.05494e-09
1.87523e-09
4.47089e-09
-4.58646e-09
-9.26862e-10
1.66588e-09
3.84745e-09
-4.72555e-09
-9.43745e-10
1.68035e-09
3.98895e-09
-6.32522e-09
-1.27385e-09
2.2759e-09
5.32318e-09
2.19888e-10
2.50732e-10
-5.85678e-09
-2.78597e-09
2.74594e-09
-3.56506e-09
3.60508e-09
-3.59558e-09
-1.29454e-09
-2.30839e-09
5.19637e-09
3.85185e-09
-6.73982e-09
3.85434e-09
-4.22628e-09
-2.82949e-09
6.12672e-10
4.15585e-10
-8.28486e-10
-1.99771e-10
3.99253e-09
4.43862e-09
-3.72262e-09
-4.04184e-09
-5.60054e-09
5.56012e-09
-3.31111e-11
7.35355e-11
5.4663e-09
-3.71881e-09
2.7294e-09
-3.73725e-09
-7.66319e-11
3.86257e-09
-4.86902e-11
3.27663e-09
-5.53996e-10
-2.86421e-09
-2.5518e-09
2.65972e-09
5.99413e-09
1.57309e-09
-3.17059e-09
-4.39664e-09
6.36952e-09
1.37289e-09
-2.62917e-09
-5.11324e-09
2.58319e-09
-6.00191e-09
2.71171e-09
-1.78513e-09
-3.18409e-09
2.25752e-09
-2.68844e-09
-3.2425e-09
3.37913e-09
-1.02462e-10
-5.8032e-09
4.52074e-09
1.38492e-09
1.45337e-09
2.60921e-10
3.90265e-09
2.62806e-10
-2.51136e-09
7.61362e-09
-4.6271e-09
-5.94505e-09
-2.54235e-09
-1.96811e-10
3.15583e-09
-1.0033e-09
1.78749e-09
4.82313e-09
-8.79217e-10
1.56973e-09
4.20864e-09
-7.784e-10
1.39126e-09
3.71174e-09
-7.44892e-10
1.33201e-09
3.54785e-09
-7.59665e-10
1.35821e-09
3.61998e-09
-7.29829e-10
-6.69021e-10
-5.6506e-09
7.04945e-09
-2.74411e-09
2.71268e-09
1.92288e-10
-1.6086e-10
-3.63416e-09
7.05737e-10
3.12745e-09
-1.99026e-10
-3.21394e-09
4.41363e-09
4.47306e-09
-5.67275e-09
-2.36421e-09
3.28994e-09
3.29347e-09
-4.2192e-09
-2.41227e-09
3.3544e-09
3.36028e-09
-4.30241e-09
-2.47334e-09
3.43596e-09
3.44515e-09
-4.40777e-09
-2.804e-09
3.87579e-09
3.90476e-09
-4.97656e-09
2.93497e-09
2.42748e-09
-9.23831e-10
2.74009e-09
-3.46072e-09
3.72629e-09
5.59976e-09
-5.26558e-10
3.14404e-10
-5.38761e-09
3.97e-09
1.70866e-10
-3.7505e-09
-3.70851e-09
-8.6418e-10
4.10781e-09
-5.89268e-09
-4.42406e-09
6.20893e-09
6.31247e-10
-6.29262e-09
6.25449e-10
1.39994e-09
-8.47756e-10
-5.41957e-09
4.86738e-09
-1.51209e-10
-3.58789e-09
3.7391e-09
-2.53209e-09
-1.69059e-09
6.1092e-09
-5.51061e-09
-1.77411e-09
-3.00631e-09
3.40292e-09
1.3775e-09
3.36793e-09
-3.26068e-09
2.98511e-09
-5.21976e-09
7.72543e-10
4.62372e-09
-1.76504e-10
-2.35323e-09
9.50696e-10
-5.7474e-09
5.0632e-09
2.33792e-10
-1.20461e-08
-6.73726e-09
1.13536e-08
3.13299e-09
-2.77861e-09
3.49996e-09
1.09849e-09
3.14273e-09
3.41915e-09
-2.51884e-09
3.60663e-09
-4.50693e-09
3.30307e-09
1.20735e-08
-1.32957e-09
-1.4047e-08
-5.42712e-09
3.57391e-09
4.98424e-09
-1.46308e-09
1.53466e-09
3.18345e-09
-3.25503e-09
1.90114e-09
-2.96448e-09
5.51453e-09
7.84779e-10
9.703e-10
-9.67913e-10
-7.87165e-10
-5.31345e-09
-7.75838e-09
5.54692e-09
7.52492e-09