/*--------------------------------*- C++ -*----------------------------------*\
  =========                 |
  \\      /  F ield         | OpenFOAM: The Open Source CFD Toolbox
   \\    /   O peration     | Website:  https://openfoam.org
    \\  /    A nd           | Version:  8
     \\/     M anipulation  |
\*---------------------------------------------------------------------------*/
FoamFile
{
    version     2.0;
    format      ascii;
    class       volVectorField;
    location    "0.4";
    object      U;
}
// * * * * * * * * * * * * * * * * * * * * * * * * * * * * * * * * * * * * * //

dimensions      [0 1 -1 0 0 0 0];

internalField   nonuniform List<vector> 
4280
(
(3.0959e-05 1.54737e-05 -1.27722e-22)
(0.000628963 0.00100941 4.59854e-22)
(1.95111e-05 3.72764e-05 -1.86131e-21)
(0.000317574 0.000393964 -1.30505e-21)
(0.000629726 0.000881927 7.34117e-22)
(0.000517225 0.00103012 0)
(0.000615449 0.00081795 0)
(0.000701092 0.00109788 5.20542e-22)
(0.000604797 0.00103256 -9.47621e-22)
(0.000514286 0.00101269 2.11733e-22)
(4.19746e-05 4.70523e-07 8.23986e-24)
(0.0005104 0.00120417 -9.07391e-22)
(3.8205e-05 8.2843e-05 -1.88591e-21)
(0.000596878 0.000443516 -2.51454e-21)
(0.000557172 0.000962701 -7.34489e-22)
(0.000672187 0.00109733 -4.64358e-22)
(0.000510581 0.000813948 8.94788e-22)
(0.000305733 0.000946773 -1.30533e-21)
(0.000174302 0.000758711 3.13588e-22)
(0.000683565 0.00109673 0)
(4.07948e-05 -2.27952e-06 -5.5939e-24)
(0.000636852 0.00110776 0)
(5.27816e-05 -7.1151e-05 1.05847e-21)
(0.000662483 0.00130342 0)
(0.000479973 0.00102404 -1.13804e-21)
(0.000533322 0.000866752 -1.62159e-22)
(0.000594543 0.00112318 0)
(0.000528174 0.00102105 -7.24054e-22)
(0.000558769 0.000952189 -5.19524e-22)
(0.000469565 0.000877368 6.21895e-22)
(0.000604636 0.000951695 -1.50805e-21)
(0.000262472 0.000956396 0)
(0.000457579 0.000942829 -9.73472e-22)
(0.000381953 0.000887819 -1.84518e-21)
(3.31837e-05 0.000307031 1.52644e-21)
(0.000525633 0.00104857 1.28226e-21)
(0.000781198 0.0012404 -1.99098e-23)
(0.000425624 0.00077576 1.34767e-21)
(0.000562642 0.00121574 -4.57584e-22)
(0.000542704 0.00103429 1.57208e-23)
(0.00064451 0.000551083 4.70184e-22)
(0.000634386 0.00113551 -9.53053e-22)
(0.000484581 0.00083227 0)
(0.000628662 0.000801109 0)
(0.000458676 0.00092294 -3.00017e-22)
(0.000499796 0.000968651 0)
(0.000887435 0.000978697 -4.08986e-22)
(0.000583602 0.00112176 -5.02912e-22)
(0.000505392 0.00091726 3.14768e-23)
(0.000925071 0.00129536 8.90406e-22)
(0.000729095 0.00132803 0)
(0.000664086 0.00110153 0)
(0.000534574 0.00104215 -5.03985e-22)
(8.47101e-05 0.000673136 -1.55149e-21)
(0.000225881 0.000567628 -5.66736e-22)
(0.000684965 0.00109237 4.48103e-22)
(7.33741e-05 -0.000503204 -4.38917e-22)
(0.000652968 0.00131898 -9.19844e-22)
(0.000543459 0.000899933 -2.53169e-23)
(0.000589715 0.00113146 4.9802e-22)
(0.000539243 0.00103284 -1.65646e-23)
(0.000591763 0.0011646 8.44432e-22)
(0.000704801 0.000971928 1.82525e-21)
(0.000521804 0.00102956 -1.82978e-21)
(0.000512237 0.00102883 1.52609e-21)
(0.000681297 0.00109262 0)
(0.000792724 0.000804337 0)
(0.000154005 0.000532204 -9.03608e-22)
(0.000540983 0.00099774 -3.86859e-22)
(0.000594238 0.00115347 -4.58581e-22)
(0.000537276 0.0009166 -2.45081e-22)
(0.000549648 0.000953813 -5.25359e-22)
(0.000757679 0.00122234 -5.67828e-22)
(0.000711332 0.00127988 9.97287e-22)
(0.000875696 0.000481801 -1.12342e-23)
(0.000184068 0.000734502 -1.72586e-21)
(0.000499321 0.00111041 0)
(0.000520853 0.000877883 0)
(0.000669595 0.00109147 2.13875e-23)
(0.00023394 0.000828478 -4.53747e-22)
(0.000419882 0.000875881 1.14342e-22)
(0.000629369 0.00112764 1.55945e-22)
(0.000351901 3.84591e-05 -3.14973e-21)
(0.000524237 0.000950135 -7.44537e-24)
(0.000506556 0.00096566 1.5079e-21)
(0.000943753 0.000643446 -1.86025e-21)
(0.000599888 0.00110983 3.91056e-22)
(0.000539083 0.000856183 2.16149e-22)
(0.00026789 0.00081341 -8.69519e-22)
(0.000191659 0.000726026 0)
(0.00062351 0.00113695 6.74913e-22)
(0.000322177 0.000990808 3.00781e-21)
(0.000396787 0.000851541 1.76011e-23)
(0.0005161 0.000884385 -3.68441e-22)
(0.00048531 0.000859137 0)
(0.000531522 0.000862942 7.34834e-22)
(0.000751868 0.00128269 0)
(0.000540333 0.00102309 -3.95227e-22)
(0.00076953 0.00105265 -3.41827e-23)
(0.000546708 0.000915418 -1.64921e-21)
(0.00054205 0.00104126 -9.34484e-22)
(0.000497853 0.00105928 3.64868e-23)
(0.000679943 0.00130149 0)
(0.000552457 0.000892436 -6.59921e-22)
(0.000594484 0.0011467 4.67012e-22)
(0.000557366 0.00103929 -2.78817e-23)
(0.000498123 0.000964646 -9.9558e-22)
(0.000573659 0.00111369 -1.66305e-21)
(0.000600373 0.000943186 0)
(0.000389793 0.000678264 0)
(0.000260731 0.000682554 1.02822e-21)
(0.000504588 0.00100312 1.0681e-21)
(0.000504377 0.000971597 -1.5216e-21)
(0.000472477 0.000823312 -1.05463e-21)
(4.35452e-05 -1.52146e-06 -8.32039e-24)
(0.000511673 0.00089455 0)
(0.000118682 -0.000185426 -2.02627e-21)
(0.000516292 0.00100847 0)
(0.000569203 0.000683768 1.19605e-21)
(0.000545933 0.000437535 0)
(0.000442173 0.000882351 -6.11017e-22)
(0.000488666 0.000936765 2.73163e-22)
(0.000692986 0.00128411 7.56058e-22)
(0.000539639 0.000897066 5.707e-22)
(0.000515754 0.000929324 0)
(0.000479261 0.000934351 8.45994e-22)
(0.000285822 0.000678236 0)
(0.000480016 0.000979135 -4.72245e-22)
(3.04448e-05 0.000233166 2.60326e-22)
(0.000816453 0.00131348 -8.34975e-23)
(0.000446065 0.00090659 -7.90496e-22)
(0.000571551 0.00102694 4.80538e-22)
(0.000588309 0.00118946 3.73887e-22)
(0.000563756 0.000930357 -6.15905e-22)
(0.000513513 0.000994624 2.2244e-21)
(3.25786e-05 0.0010772 0)
(0.000697167 0.00132372 0)
(0.000737957 0.00128194 7.69158e-24)
(0.000446682 0.000896557 -4.37386e-22)
(0.00064548 0.0011275 -2.5174e-23)
(0.000504127 0.000986621 -3.00419e-23)
(0.000435634 0.000814171 0)
(0.000266969 0.0004565 2.89677e-22)
(0.000543491 0.00105879 0)
(0.00050362 0.000974772 -8.06211e-22)
(0.000638527 0.00111236 2.79982e-21)
(0.000517177 9.86288e-05 9.29573e-22)
(0.000509104 0.00103648 4.04405e-23)
(0.000412772 0.000602893 0)
(0.000508516 0.000980807 0)
(0.000278819 0.000822865 0)
(0.00165841 0.000234626 0)
(0.000494297 0.000926387 -6.11715e-22)
(0.000473057 0.000566811 0)
(0.000360102 0.00102898 -1.07765e-23)
(0.000648696 0.00112399 -1.69414e-23)
(0.000593958 0.000794479 0)
(0.000520725 0.00101204 6.32287e-22)
(0.000476286 0.0009146 9.41237e-22)
(0.000450944 0.000884985 0)
(0.000638604 0.00116454 0)
(0.000587277 0.00101385 1.73612e-21)
(0.000475397 0.000113966 1.44632e-21)
(0.000534011 0.000971032 -1.93077e-21)
(0.000589276 0.00117037 0)
(0.000618425 0.000953246 3.63777e-24)
(0.000643766 0.00111481 4.16867e-22)
(0.000578155 0.00102023 1.68807e-23)
(0.000677313 0.00109399 5.12869e-22)
(0.000645405 0.00124588 9.08295e-23)
(0.000596835 0.000911736 0)
(0.000464666 0.000911056 2.02293e-22)
(0.000511618 0.000968624 -1.29979e-23)
(6.31401e-05 0.00150251 -4.4255e-23)
(0.000972489 0.00042288 -1.72683e-21)
(0.000530147 0.000990111 1.38259e-23)
(0.000904837 0.000411678 0)
(0.000539721 0.000941506 1.62742e-21)
(0.000420101 0.000850695 -1.51408e-22)
(0.000603959 0.000935608 -4.59644e-22)
(0.000579482 0.000693059 -1.2388e-21)
(0.00077281 0.000738148 6.82245e-22)
(0.000155025 0.000719434 -1.29605e-21)
(0.000776647 0.00120378 -9.76521e-22)
(0.000943496 0.00141856 9.94918e-22)
(0.000524664 0.00100837 0)
(0.000511264 0.000985692 1.91616e-23)
(0.000803696 8.00277e-05 -1.70476e-22)
(0.000676408 0.00134168 7.0075e-22)
(0.000482436 0.000854519 -4.95778e-23)
(0.00017461 0.000580584 2.00407e-22)
(0.000384588 0.000845811 0)
(0.000542944 0.000951082 -1.63424e-23)
(0.000591526 0.0010196 -5.51438e-23)
(0.0004792 0.00092796 -9.85769e-23)
(0.000697417 0.00104186 -1.53551e-21)
(0.000698667 0.00109516 0)
(0.00062846 0.000986378 -8.48587e-22)
(0.000786287 0.0012302 0)
(0.000869719 0.00134574 -1.21015e-21)
(0.000473108 0.000640601 -1.83279e-23)
(0.000833151 0.000897777 -1.35326e-21)
(0.000563621 0.000903734 0)
(0.00051788 0.00102389 0)
(0.000552311 0.00102079 -1.2314e-21)
(0.00058976 0.00108514 -4.12491e-22)
(0.000505967 0.000902852 1.86403e-21)
(0.000604159 0.00111234 -6.34526e-22)
(0.000510755 0.000894562 -7.87002e-22)
(0.000729865 0.00130634 7.49408e-22)
(0.000708478 0.000980032 -1.61919e-21)
(0.000286812 0.000597245 -1.18169e-22)
(0.000546991 0.00109878 1.09604e-21)
(0.000423992 0.000581992 2.35463e-21)
(0.000534968 0.00091872 0)
(0.000509246 0.00101941 1.03867e-21)
(0.00108242 0.0001732 -1.29308e-21)
(0.000763446 0.00106594 -3.06778e-22)
(0.000666206 0.00111076 5.17021e-22)
(0.000396682 0.00068525 1.1317e-21)
(0.000617153 0.000834904 8.39726e-23)
(2.85913e-05 -1.5833e-05 -4.90275e-24)
(0.000499504 0.000956544 2.15663e-21)
(0.000862295 0.000865496 5.92059e-22)
(0.000569859 0.00110768 -1.09524e-21)
(0.000513213 0.000747799 0)
(0.000981665 0.000428194 1.41848e-21)
(0.000534184 0.00109843 -7.46272e-22)
(0.000545617 0.00087625 0)
(0.00042378 0.000859193 -1.1884e-21)
(0.000988574 5.01078e-05 4.15166e-22)
(0.000536448 0.000948941 -4.44453e-22)
(0.00087731 3.37952e-05 -3.04204e-22)
(0.000435638 0.000817629 -8.60977e-22)
(0.000530142 0.00096165 -1.57072e-21)
(0.000522259 0.000265067 -1.09079e-21)
(0.00050275 0.000978962 -1.1151e-21)
(0.000675566 0.0010943 -6.38239e-22)
(0.000228173 0.00084476 -1.67944e-21)
(0.000763621 0.00121204 -2.69386e-22)
(0.000593608 0.00116065 -4.34071e-22)
(0.000520126 0.00101416 9.15905e-22)
(0.00066314 0.00110287 -2.75961e-22)
(0.000511878 0.00102493 -1.74796e-21)
(0.000777878 0.00126788 -4.23031e-22)
(0.000617111 0.00123857 0)
(0.000795399 0.00123191 9.36419e-23)
(0.000799604 0.0013025 3.89149e-23)
(0.00046676 0.000961511 3.39063e-22)
(0.000499475 0.000927256 2.97769e-22)
(0.000619895 0.00102984 1.071e-21)
(0.000526574 0.000957238 0)
(0.000518405 0.00108671 1.0564e-21)
(0.000544027 0.000847208 -3.71908e-22)
(0.000708951 0.00149363 5.89772e-23)
(0.000528048 0.00103968 -1.59301e-23)
(0.000479884 0.000476311 1.86953e-21)
(0.000531093 0.00096038 0)
(0.000578579 0.000475543 1.21727e-21)
(0.000731754 0.00119114 3.26469e-21)
(0.000630678 0.00109439 0)
(0.00035234 0.000237876 -1.10248e-21)
(3.73792e-05 0.000653248 0)
(0.000533292 0.000894989 2.19513e-22)
(0.00113367 0.000334508 -2.70053e-21)
(0.000577267 0.0010179 1.35353e-23)
(0.000425825 0.000791595 8.52888e-22)
(0.00071559 0.00125467 -8.14551e-22)
(0.000468375 0.000946033 0)
(0.00094139 0.00100015 1.94227e-21)
(0.000267455 0.00105003 -2.49015e-23)
(0.000460238 0.000877221 6.50319e-22)
(0.000645419 0.00112492 -4.76832e-22)
(0.000584761 0.000878207 -1.88791e-23)
(0.000603163 0.000914609 -7.67047e-22)
(0.000645926 0.00112229 -5.22539e-22)
(0.000730845 0.000607632 2.29582e-23)
(0.000593975 0.00115789 -8.87259e-22)
(0.0007548 0.00124771 -7.74271e-22)
(0.000643641 0.000303852 2.67886e-21)
(0.000662524 0.00135648 -2.65912e-21)
(0.000440643 0.000898961 -3.42283e-22)
(0.000531369 0.000932486 -4.39816e-22)
(0.000407702 0.0002691 0)
(0.00058081 0.000937395 1.60302e-21)
(2.3299e-05 -1.23994e-05 4.12335e-24)
(0.00092485 0.0012883 -2.68387e-21)
(0.000805693 0.00130457 0)
(0.000649326 0.00101467 2.71114e-22)
(0.000551597 0.000910884 4.71076e-22)
(0.000441652 0.00101738 -4.8152e-22)
(0.00050321 0.00131614 -6.98303e-23)
(0.000325764 0.000839296 0)
(0.000900849 0.00125444 -1.29907e-21)
(0.000611038 0.000920824 8.72809e-22)
(0.00031984 0.000698492 4.13729e-22)
(0.00025955 0.000751001 -7.82015e-23)
(0.000678813 0.00107443 1.91659e-21)
(0.000530912 0.00104563 3.65509e-22)
(0.000510788 0.0011289 3.54328e-22)
(0.000355353 0.000754782 1.9674e-21)
(0.000828442 9.13563e-05 -2.29103e-21)
(0.000742286 0.00122468 -2.09372e-21)
(0.000444965 0.000269906 7.44722e-22)
(0.000606594 0.0011136 6.32616e-23)
(0.000638516 0.00111613 4.90389e-22)
(0.00104261 5.70445e-05 0)
(0.000857328 0.000165125 4.94827e-23)
(0.000974351 0.00135857 2.75624e-22)
(0.000516738 0.00106426 2.21751e-22)
(0.000532678 0.000959291 -7.91951e-24)
(0.000673411 9.65946e-05 -3.08844e-21)
(0.000533748 0.00103869 5.09708e-22)
(0.000398664 0.000721544 1.76137e-21)
(0.000499457 0.00094112 1.10607e-21)
(0.000626992 0.00119834 -1.4469e-22)
(1.87535e-05 -2.16253e-05 1.53582e-23)
(0.000861993 0.000968877 8.69259e-22)
(0.000607355 0.0011475 -3.85191e-22)
(0.000518111 0.000912264 -1.04712e-22)
(0.000151217 0.000748633 5.2434e-24)
(0.00114672 0.00011798 0)
(0.00020088 0.000860581 3.02606e-23)
(0.000591457 0.000918641 0)
(0.000488232 0.000872125 3.61657e-22)
(0.00103405 0.000140402 0)
(0.000324121 0.000945414 -2.88516e-22)
(0.000295574 0.000624312 -1.48432e-21)
(0.000706371 0.00128584 8.51078e-22)
(0.000575994 0.00103078 1.06925e-21)
(0.000255685 0.000310715 3.5539e-21)
(0.000688466 0.00117836 -1.45362e-22)
(0.000527069 0.00101607 -1.14282e-21)
(0.000442514 0.000927289 1.23305e-21)
(0.000479429 0.0009616 7.83957e-22)
(0.000515371 0.00106411 0)
(0.000617039 0.00093024 -4.444e-22)
(0.000600129 0.0010006 8.33655e-22)
(0.000785332 0.00123307 1.79384e-21)
(0.000646598 0.00111829 0)
(0.000118397 -8.60863e-05 2.45242e-21)
(0.000520351 0.000893965 0)
(0.000688962 0.0011793 2.09912e-21)
(0.000561699 0.000881786 8.15069e-22)
(0.000425222 0.000987143 1.37969e-22)
(0.000638527 0.00112273 -5.93354e-22)
(0.000267617 0.00085031 7.80036e-22)
(0.000321263 0.000689333 -4.68196e-22)
(0.000527893 0.000929271 0)
(0.000718869 0.00108907 3.49038e-22)
(-1.01731e-06 0.000828805 0)
(0.00029966 0.000765674 -6.83659e-22)
(0.00154649 0.000293081 0)
(0.000633559 0.00109442 -5.7311e-22)
(0.000727512 7.84885e-05 6.54097e-23)
(0.00072173 0.00107831 1.00969e-21)
(0.000679835 0.00110996 -2.92939e-22)
(0.000280711 0.000747568 8.64344e-22)
(0.000717445 0.00125747 -3.3198e-22)
(0.000727114 0.00108735 -3.47059e-22)
(3.86081e-05 0.00018597 8.40351e-22)
(0.000569712 0.0010123 1.45837e-23)
(0.00069852 0.0010569 -9.11594e-22)
(0.000539902 0.00095511 -5.75924e-22)
(0.000654314 0.00114183 0)
(0.000477457 0.00109327 0)
(0.000511928 0.000915061 -1.79048e-21)
(0.000501771 0.000855784 0)
(0.000639873 0.000939152 -1.32985e-21)
(0.000547722 0.000908686 -3.83331e-22)
(0.000394985 0.00097574 -6.23634e-23)
(0.000689555 0.00122224 6.04286e-22)
(0.000676692 0.00123031 -1.23372e-22)
(0.000324458 0.000648079 1.59744e-21)
(0.000503188 0.000979844 0)
(0.000448459 0.000936729 -6.1783e-22)
(0.000576882 0.000879751 6.52702e-23)
(0.000134094 0.000165494 0)
(0.000395775 0.00102694 2.13365e-22)
(0.000513259 0.00101211 -1.20896e-24)
(0.0007593 3.89308e-05 7.62998e-24)
(0.000291915 0.000854435 3.49165e-24)
(3.35722e-05 3.93443e-08 1.62034e-21)
(0.000364934 0.000891287 6.97236e-22)
(0.00055739 0.00108702 -4.0739e-22)
(0.000824078 0.00113278 -1.50948e-21)
(0.00043658 0.000788056 -1.20885e-21)
(0.000580302 0.000901061 -9.89916e-23)
(0.000466141 0.000905967 0)
(0.00101565 0.000815835 1.12609e-21)
(-0.000121616 0.00102148 -8.11816e-22)
(0.000506287 0.00114202 0)
(0.0003623 0.000825076 -1.74166e-21)
(0.000459127 0.000585986 1.25156e-21)
(0.000480977 0.000920552 0)
(0.000700547 0.00110763 7.96096e-22)
(0.000522126 0.0010284 -1.0179e-22)
(0.000303656 0.000351613 -3.74869e-21)
(0.000350011 0.000400029 -2.61683e-22)
(0.00049978 0.000946849 -7.22659e-22)
(0.000748461 0.000971573 7.61902e-22)
(0.000499216 0.000922073 -4.18789e-22)
(0.000562733 0.00100819 -3.08211e-22)
(0.000502576 0.000962419 0)
(0.000787696 0.00128022 -2.6272e-23)
(0.000283698 0.000883723 0)
(0.000529862 0.00103803 -2.25622e-23)
(0.000709452 0.00108445 3.42384e-22)
(0.000510623 0.000920681 -5.06389e-22)
(0.000747396 0.00122912 9.71061e-22)
(0.00051416 0.000897352 4.20862e-22)
(4.65334e-05 -6.36229e-07 6.18108e-23)
(0.000564373 0.00103389 -1.06567e-21)
(0.00059169 0.000916513 7.12923e-22)
(0.000793307 0.00123622 -6.63525e-24)
(0.00060599 0.00162913 0)
(2.16417e-05 -3.51246e-05 -1.03449e-21)
(0.000651961 0.000888024 -1.49198e-21)
(0.000629608 0.00108579 0)
(0.000490697 0.000797834 -8.46856e-22)
(0.000291792 0.000798202 0)
(0.000362876 0.000875043 1.44037e-21)
(0.000552061 0.00110939 7.9865e-22)
(0.000942871 0.00109036 -9.08048e-22)
(0.00058543 0.00101333 0)
(0.000747187 0.00135684 1.3806e-21)
(0.000716106 0.00111061 3.81303e-22)
(0.000477005 0.000906094 5.65815e-22)
(0.000509251 0.000983959 -9.68915e-22)
(0.000455705 0.000905322 -4.57584e-22)
(0.000731425 0.00126694 4.09633e-22)
(0.000370746 0.00119851 -2.91802e-21)
(0.000216212 0.00083987 -7.93897e-22)
(0.00042557 0.000875711 -8.5814e-22)
(0.000737196 0.000133771 -6.80281e-22)
(0.000636227 0.000458271 3.21984e-21)
(0.000915019 0.000261938 -2.73651e-22)
(0.000452582 0.000916847 -6.81242e-24)
(0.000374777 0.000545663 -1.36767e-21)
(0.000826691 0.000481587 2.49593e-21)
(0.000644613 0.0011281 -8.29572e-22)
(0.000532878 0.000893999 0)
(0.000564557 0.000946948 1.27473e-21)
(0.00020507 0.000764596 0)
(0.000632542 0.00113188 -6.78024e-22)
(0.000667876 0.001106 -4.48187e-23)
(0.00065879 0.000593842 -1.76074e-21)
(0.000421363 0.000787618 9.19714e-22)
(0.000634277 0.000728414 -1.62884e-21)
(0.000460307 0.000970046 -6.19855e-22)
(0.000368548 0.000468477 3.9269e-22)
(0.000604976 0.000653867 1.23976e-21)
(0.000784467 0.00129541 6.47822e-24)
(0.000574004 0.000888408 -1.45443e-23)
(0.000631077 0.00108345 0)
(0.000397321 0.00086027 1.15865e-21)
(0.000590924 0.00116429 -2.14407e-21)
(0.000338699 0.000916312 -1.36786e-21)
(0.000651446 0.000636157 1.88414e-21)
(0.000218407 0.000464294 7.79233e-22)
(0.000558144 0.001133 -6.22612e-22)
(0.00058007 0.000396932 0)
(0.00049451 0.000946199 -5.02768e-21)
(2.52096e-05 2.70303e-05 -7.77225e-22)
(0.000776356 0.00118265 -3.1456e-22)
(0.000610778 0.00116719 -3.20598e-21)
(0.000495101 0.000952326 4.14738e-21)
(0.000726678 0.00114945 0)
(0.000406633 0.000804777 -2.20104e-21)
(0.000316083 0.00126751 -2.2074e-22)
(0.000453448 0.00113984 1.21279e-23)
(7.01154e-05 0.000731643 0)
(0.000656516 0.000623696 -4.64086e-21)
(0.000611517 0.00105286 -2.82698e-22)
(0.000718454 0.00162455 4.66277e-23)
(0.000624746 0.000700449 -1.31493e-21)
(0.000483083 0.00105251 -1.67813e-21)
(0.000438994 0.000944354 -9.27512e-22)
(0.000538482 0.000954966 -1.43976e-24)
(0.000531495 0.00108288 -4.28527e-24)
(0.00107822 0.00030913 -3.19941e-22)
(0.000252689 0.000735202 -2.12941e-21)
(0.000641574 0.000979769 -9.11706e-22)
(0.000594673 0.000897993 -5.30769e-24)
(0.000505507 0.00104731 -4.45926e-22)
(0.000457343 0.000986346 -1.55038e-22)
(0.000459946 0.000915038 0)
(0.000755551 0.000224406 1.79415e-21)
(0.000573675 0.00097566 -8.04501e-22)
(0.000567506 0.000372236 1.01489e-21)
(0.00054475 0.00103438 2.64058e-21)
(0.000660306 0.000906624 0)
(0.00108016 0.000365696 1.23679e-21)
(0.000470498 0.000925772 -8.64349e-24)
(5.03921e-05 9.78469e-05 -9.92833e-22)
(0.000636408 0.000978692 0)
(0.00075429 0.00106706 1.04086e-21)
(0.000781843 0.00122689 -1.66239e-21)
(0.000574033 0.000943244 0)
(0.000557212 0.00091083 0)
(0.000684402 0.00112991 0)
(0.000989556 0.000344558 -1.19838e-21)
(0.000516343 0.000977156 0)
(0.00051983 0.000716367 -3.25127e-21)
(0.000355276 0.000869626 -3.9513e-21)
(0.000944741 0.00096258 -1.66916e-21)
(0.000697935 0.00109572 -3.39636e-22)
(0.000696611 0.00128446 1.05648e-23)
(0.000588795 0.000911377 1.02184e-21)
(0.000546924 0.00035355 -7.67596e-22)
(0.000489799 0.00104634 0)
(0.000458815 0.000682895 -1.03994e-21)
(0.000539143 0.000703185 1.40471e-21)
(3.41304e-05 -1.33158e-05 0)
(0.000319708 0.000878716 -4.11048e-22)
(0.000585927 0.00086269 3.63554e-22)
(0.000284707 0.000735231 0)
(0.000803435 0.000196316 7.59453e-22)
(0.000652578 0.000894142 0)
(0.000279369 0.000847451 5.26194e-22)
(0.000792442 0.00114753 2.16299e-21)
(0.000333107 0.000829047 -1.82167e-21)
(0.000484534 0.00101802 -1.45869e-22)
(0.000353688 0.000935643 -2.59201e-21)
(0.000469522 0.000586584 -2.86121e-21)
(0.000681232 0.000866359 1.20074e-23)
(0.000408514 0.000952676 2.05106e-22)
(0.000689729 0.00113697 1.70428e-22)
(0.000593436 0.000346018 1.57073e-21)
(0.000673588 0.000730713 -4.14421e-21)
(0.000778679 0.00118396 0)
(0.00062119 0.00113023 1.09158e-21)
(0.000478244 0.00091762 -3.86405e-21)
(0.000237918 0.000874702 0)
(0.000842261 0.000298381 2.56539e-21)
(0.000437128 0.000874028 0)
(0.000646194 0.00111322 -2.62116e-22)
(0.000752617 0.00127896 -1.18872e-21)
(0.000770651 0.00120039 9.31142e-22)
(0.00078869 0.00122598 -1.53511e-21)
(0.000481111 0.00109618 -4.07064e-22)
(0.000437503 0.000217846 1.57612e-23)
(0.000503719 0.000448124 -2.10884e-21)
(0.000575469 0.000252705 0)
(0.000628732 0.0011764 2.08016e-21)
(0.00087037 0.000104687 -6.96202e-22)
(0.000599341 0.000981895 0)
(0.000567496 0.00103326 0)
(0.000165046 0.000389216 8.06102e-22)
(0.000483501 0.00105733 0)
(0.000624892 0.00106604 -4.51947e-21)
(0.000465487 0.000947089 9.03702e-22)
(0.000738149 0.00121347 1.43755e-21)
(0.000256209 -4.82884e-06 -7.99048e-22)
(0.000515646 0.000790302 -1.43345e-21)
(0.000152085 0.000454617 -1.17973e-21)
(0.000883776 0.00108962 -3.63457e-21)
(0.000529394 0.00104369 -3.56941e-22)
(0.000639116 0.000996699 2.52527e-21)
(0.000578656 0.00101395 -2.05806e-22)
(0.000632033 0.000174376 -5.63768e-23)
(0.00089776 0.00116007 1.13034e-21)
(0.000502032 0.000966306 3.91433e-22)
(0.000587137 0.00101051 1.01159e-22)
(7.93219e-05 0.000514818 0)
(0.000514337 0.000973018 0)
(0.000491822 0.000905493 -2.31752e-21)
(0.0005412 0.000986892 9.65078e-23)
(0.000485208 0.000936971 -1.99638e-21)
(0.000501664 0.000921042 1.10289e-24)
(0.000555275 0.000785712 0)
(0.000534758 0.00076416 -1.06489e-21)
(0.000752548 -7.64848e-05 -2.91274e-21)
(0.000566788 0.000414204 0)
(0.000516886 0.000907316 1.24455e-22)
(0.0005833 0.000916195 -9.87475e-23)
(0.000625788 0.000597457 2.87463e-21)
(0.00050351 0.000902762 5.36199e-24)
(0.00077666 0.00122156 -2.75566e-23)
(0.000373151 0.000916605 -7.5999e-22)
(0.00053216 0.00104006 -2.46578e-22)
(0.000561597 0.0011379 -1.17542e-22)
(0.000737008 0.00106509 0)
(0.000504033 0.00124859 2.33757e-21)
(0.000627514 0.00102948 1.74978e-21)
(0.000511445 0.00101855 -1.22869e-21)
(0.000343416 -3.87951e-05 2.68691e-24)
(0.000642998 0.00115888 -9.72832e-22)
(0.000454907 0.000790596 2.18774e-21)
(0.000347812 0.000149082 1.0917e-21)
(0.000582062 0.0010226 0)
(0.000555114 0.000932338 1.79051e-21)
(0.000330357 0.000734018 -3.52905e-22)
(0.00119063 -8.45344e-05 9.66996e-22)
(0.000302402 0.000777735 1.13631e-21)
(0.000763571 0.00121771 2.66659e-22)
(0.000577007 0.00102643 -1.03201e-21)
(0.000585859 0.000939271 -1.34939e-21)
(0.000468414 0.000904517 3.44982e-21)
(0.000763547 0.00123384 8.89873e-22)
(0.000644677 0.00020928 -2.28855e-21)
(0.000553389 0.000174447 2.6239e-21)
(0.000610901 0.00011204 -2.71517e-21)
(0.000686674 0.00115509 5.74225e-23)
(0.00041938 0.000867316 -4.28918e-21)
(0.00064147 4.9897e-05 1.42963e-21)
(0.000626029 0.00109997 0)
(0.000727046 0.00134544 -9.14502e-22)
(0.000639114 0.000791875 1.66009e-21)
(0.000337537 0.000788472 -3.81506e-22)
(0.000254122 0.000423799 -1.87819e-22)
(0.000509676 0.000916107 1.22936e-23)
(0.000531285 0.000999632 4.051e-22)
(0.000504376 0.000950358 -8.60378e-22)
(0.00047908 0.000917221 0)
(0.000544985 0.000885992 -1.57159e-21)
(0.000665501 -6.79536e-06 1.46075e-21)
(0.000661944 0.00117801 -1.08239e-21)
(0.000570089 0.00115367 1.06385e-21)
(0.000959336 0.00115433 -5.44262e-23)
(0.000560806 0.000247751 0)
(0.000396151 0.000132241 -1.11868e-21)
(0.000646786 0.00100654 -4.27238e-23)
(0.000573882 0.00103165 -1.07983e-21)
(0.000595612 0.00100772 5.59239e-23)
(2.0256e-05 1.72776e-05 2.20379e-22)
(0.000578339 0.00101467 2.12998e-22)
(0.000361117 0.000789959 -1.7669e-21)
(0.000800857 2.81768e-05 1.43257e-21)
(0.000656071 0.000136151 1.31827e-21)
(0.000614303 0.00128753 -3.78431e-23)
(0.000404912 0.00115921 0)
(0.000789123 0.00118894 -1.73451e-21)
(0.000691685 0.0010232 0)
(7.31856e-05 -3.68263e-06 1.1649e-21)
(0.000568375 0.00101907 -6.70585e-22)
(0.000512597 9.65556e-05 -1.7425e-21)
(0.000565398 0.00100827 -8.67588e-22)
(0.000469642 0.000945055 9.44312e-22)
(0.000406827 0.000905175 1.02495e-21)
(0.000708371 0.00125114 -9.73699e-22)
(4.54759e-05 0.000142907 3.75364e-21)
(0.000707977 0.00120125 3.71376e-22)
(0.000736359 0.000106297 0)
(0.000510924 0.00113328 1.13355e-22)
(0.000426823 0.000749912 4.42427e-23)
(0.000528661 0.00092992 0)
(0.000625794 0.000388856 -4.0027e-21)
(0.000833539 2.47845e-06 0)
(0.000580232 0.00100541 1.93614e-22)
(0.0004586 0.000915689 1.27726e-21)
(0.000632297 0.0011202 -3.00877e-21)
(0.000571025 0.000976924 -2.73907e-22)
(0.000810433 0.000149735 -1.6217e-22)
(0.000462093 0.00095472 0)
(4.81376e-05 0.000356442 -2.39881e-22)
(0.000697354 0.00130962 0)
(0.000190495 0.00038355 0)
(-5.23944e-06 0.000820524 -6.4156e-22)
(0.000443963 0.00102117 -1.74306e-21)
(0.000660725 0.000186352 -1.22384e-21)
(0.000622579 0.000974047 1.72015e-21)
(0.000369877 0.000856846 2.9358e-22)
(0.000758982 0.00105908 -1.91501e-21)
(0.000587702 0.0011168 0)
(0.00050958 0.000965813 6.98223e-22)
(0.000649443 0.00139764 0)
(0.000657356 0.00135776 -4.35994e-23)
(0.000511523 0.000999339 2.09081e-21)
(0.000468898 0.000880846 1.87727e-22)
(0.000543729 0.000659142 3.51757e-21)
(0.000503998 0.000365819 2.12244e-21)
(0.000359164 0.000905291 0)
(0.000517215 0.000966063 -2.26075e-22)
(0.000929162 0.00131087 0)
(0.000527001 0.000943129 0)
(0.000564914 0.000971337 -2.25197e-21)
(0.00110137 0.000214615 1.07249e-21)
(0.000649208 0.00115339 0)
(0.00019114 9.0377e-06 1.55845e-21)
(0.000483213 0.000791306 -1.443e-22)
(2.56869e-05 0.000118624 1.79234e-21)
(0.000676887 0.000484884 -1.92174e-22)
(0.000654827 0.00111 9.97022e-22)
(0.000725831 0.00107639 1.85669e-21)
(0.000666445 0.00101375 -9.2864e-22)
(0.000499108 0.0010919 0)
(0.000505795 0.000973939 1.07147e-21)
(3.56375e-05 0.00040566 6.20166e-23)
(0.000527569 0.000890149 -8.2127e-22)
(0.00046505 0.000948033 -5.02952e-22)
(0.000718831 0.00133003 -7.83392e-22)
(0.000746182 0.00131117 -3.23578e-23)
(0.00056495 0.00094275 0)
(0.000640343 0.00115335 9.46082e-22)
(0.000722103 0.00108573 -1.63357e-21)
(0.000539297 0.000965681 3.9574e-22)
(0.000738114 0.00032905 9.11251e-22)
(0.000502124 0.000966076 1.47517e-21)
(0.000542267 0.000962181 0)
(0.000511416 0.00100802 0)
(0.000489055 0.000947263 9.61875e-22)
(0.000527772 0.000912257 -2.07809e-22)
(0.000568826 0.000912895 2.08785e-21)
(0.000565605 0.00102771 0)
(0.000673437 0.000866602 8.93751e-22)
(0.00106305 0.000396975 6.44609e-23)
(0.000562788 0.00102332 5.05423e-22)
(0.000525906 0.000895515 -1.5102e-21)
(0.00055275 0.000692483 1.04993e-21)
(0.000577605 0.00096571 -1.55579e-21)
(0.000646678 0.00112457 -1.34185e-23)
(0.000713827 2.12586e-05 -2.43559e-21)
(0.000514968 0.00104045 3.55215e-22)
(0.000487703 0.00122211 0)
(0.000512537 0.000981193 -1.97002e-21)
(0.000462425 0.000997989 1.4947e-24)
(0.000510625 0.00122365 0)
(0.000354012 0.000854016 1.30306e-21)
(0.000485008 0.000930885 -1.90946e-21)
(3.41436e-05 -7.08462e-07 2.52369e-21)
(0.00038027 0.00123575 -1.65328e-21)
(0.000563932 0.00102135 -1.01402e-21)
(0.000706082 0.000404392 8.30129e-22)
(0.00053848 0.000909993 7.50298e-22)
(0.000559155 -0.000349378 -1.60991e-22)
(0.000694889 0.000143169 0)
(5.98464e-05 -7.08006e-08 0)
(0.00050358 0.000937773 -2.6668e-21)
(2.49009e-06 2.35081e-05 1.20523e-22)
(0.000548157 0.00103041 1.70192e-21)
(0.00059689 0.000888299 1.83393e-22)
(0.000523948 0.000920801 1.85779e-22)
(0.000586803 0.000978011 3.18849e-22)
(0.000499245 0.00103353 1.08708e-21)
(4.33055e-05 1.84007e-06 -2.7036e-22)
(0.000573295 0.00109536 -1.66387e-21)
(0.00058684 0.00093641 -2.93274e-22)
(0.000300425 5.93748e-05 0)
(0.000491507 0.000960389 8.82107e-22)
(5.09633e-05 -7.46459e-06 0)
(0.000633588 0.000970853 -1.72523e-21)
(2.44745e-06 -6.32805e-05 0)
(4.54047e-05 -5.95834e-06 0)
(0.000659546 0.00110396 5.75983e-22)
(0.000507636 0.000949809 8.57245e-22)
(0.000375186 0.000586031 -3.21627e-22)
(0.00053313 0.000862074 -1.41565e-21)
(0.000569415 0.000946407 -1.20007e-21)
(0.000620905 0.00099947 -8.50091e-22)
(4.32233e-05 0.000225656 -4.78617e-22)
(0.000724171 0.000130596 0)
(0.000701273 0.00138107 0)
(0.000694493 0.00120289 -1.05434e-21)
(0.000532451 0.000961162 1.09029e-21)
(0.000585586 0.00101322 0)
(0.000548251 0.00104786 -3.07903e-21)
(0.000524006 0.000785001 -3.34825e-21)
(0.000584674 0.00105152 0)
(0.000454215 0.000911573 0)
(0.000511458 0.000938344 -4.04613e-22)
(0.000419731 0.000318648 8.46866e-22)
(0.000573742 0.000744314 3.98439e-24)
(0.000550534 0.000942963 -2.5191e-22)
(0.000671067 0.00111283 3.99091e-22)
(0.000512799 0.000968209 1.17723e-21)
(0.000539644 0.000947701 -1.21464e-21)
(0.000818676 0.00127844 -2.57801e-21)
(0.00046794 0.000888948 8.05331e-23)
(0.000608775 0.000353612 -4.22133e-21)
(0.000441842 0.00108378 -4.32449e-23)
(0.000555408 0.000941885 -3.30564e-22)
(0.000619498 0.00115001 -3.1832e-23)
(5.04538e-05 7.49339e-06 -5.4596e-23)
(2.38183e-05 0.00010237 -1.78275e-21)
(0.000485101 0.000920997 1.40213e-21)
(0.000538853 0.000969211 -1.24275e-21)
(0.000796232 0.000800326 0)
(0.000562618 0.000938049 1.4972e-21)
(0.000508463 0.00106944 -9.52076e-23)
(0.000574251 0.00114728 -1.37328e-22)
(0.00054543 0.00106587 -2.54585e-21)
(1.42754e-05 8.22065e-05 -6.98588e-22)
(0.000619245 0.00108276 0)
(0.000554964 0.000994446 0)
(0.000505802 0.00096837 9.68633e-22)
(-8.05387e-06 3.63125e-05 5.8632e-24)
(0.000495717 0.000997049 0)
(0.000789351 0.00127895 1.08076e-21)
(0.000559426 0.00094572 1.60701e-21)
(8.29702e-05 0.000245095 0)
(0.000663753 0.00108715 0)
(4.77886e-05 1.23494e-05 5.30404e-23)
(0.000511513 0.000956053 2.81972e-21)
(0.000327394 0.000887692 1.3603e-21)
(0.000812579 0.00123508 6.8674e-22)
(0.00054912 0.00101867 -4.86245e-22)
(0.000492621 0.00101876 -3.47727e-22)
(0.000557574 0.00093936 0)
(0.000500481 0.000965622 -1.02201e-21)
(0.000578446 0.00101202 0)
(5.49906e-05 -2.23853e-05 -1.01187e-21)
(0.000739309 0.00119321 -3.2898e-21)
(0.000702964 0.00129531 1.82338e-21)
(2.46642e-05 0.000127321 2.8952e-21)
(5.87538e-05 -1.18614e-05 0)
(0.000714805 0.00128935 8.61147e-22)
(0.000581832 0.00111672 1.05132e-24)
(0.000522898 0.000951434 1.21633e-22)
(0.00056584 0.000959568 -5.32841e-22)
(0.000527057 0.00101321 1.0817e-22)
(0.000554977 0.000918821 -2.03421e-21)
(0.000540534 0.000973539 -1.02149e-21)
(0.000442695 0.00144015 2.3479e-23)
(0.000579959 0.00101929 9.21879e-22)
(0.000451673 0.000870214 -2.11881e-22)
(7.34207e-05 0.000289817 0)
(3.19303e-05 2.18031e-05 4.1354e-22)