/*--------------------------------*- C++ -*----------------------------------*\
  =========                 |
  \\      /  F ield         | OpenFOAM: The Open Source CFD Toolbox
   \\    /   O peration     | Website:  https://openfoam.org
    \\  /    A nd           | Version:  7
     \\/     M anipulation  |
\*---------------------------------------------------------------------------*/
FoamFile
{
    version     2.0;
    format      ascii;
    class       volVectorField;
    location    "6.5";
    object      U;
}
// * * * * * * * * * * * * * * * * * * * * * * * * * * * * * * * * * * * * * //

dimensions      [0 1 -1 0 0 0 0];

internalField   nonuniform List<vector> 
591
(
(0.000816055 -4.72222e-05 1.22811e-18)
(0.000737587 -4.7911e-05 -6.7507e-19)
(0.000832558 -5.16272e-05 5.79291e-20)
(0.000819168 1.55751e-05 -1.50787e-19)
(0.000814546 2.32892e-05 2.2804e-19)
(0.000620716 -1.01371e-05 -1.41499e-19)
(0.00049877 -0.000368494 8.10667e-19)
(0.000808403 -1.36723e-05 2.12491e-18)
(0.00567004 0.00247505 1.0072e-18)
(0.000781786 -2.66828e-05 2.43967e-18)
(7.36662e-05 0.000180303 1.23769e-18)
(0.000885152 0.00123255 9.60194e-21)
(0.000764622 1.56852e-05 1.31625e-18)
(0.00150898 0.00239461 -8.01889e-19)
(0.000799705 7.92623e-05 -4.48833e-19)
(0.000186273 -0.00025548 3.62411e-22)
(0.000127464 0.000651258 7.18805e-19)
(0.000868428 3.28405e-05 -5.02563e-19)
(0.0020036 0.000446817 4.78415e-19)
(0.00131143 0.000319917 -2.53787e-19)
(0.000793506 4.34944e-05 3.73205e-19)
(0.00401293 0.00767826 4.46311e-20)
(4.47991e-05 8.09831e-05 2.76137e-19)
(0.000806906 1.65086e-06 -4.52883e-19)
(2.12871e-05 -2.76753e-05 3.66227e-19)
(0.000818008 2.11881e-05 0)
(9.01732e-05 0.000473507 1.63134e-19)
(0.000503335 3.50073e-05 -1.8254e-19)
(0.000709741 7.7776e-05 1.15585e-18)
(0.000818507 -7.73431e-05 6.00912e-19)
(7.1477e-05 1.70455e-06 3.38663e-24)
(5.3455e-05 -5.76906e-05 3.59443e-19)
(5.00874e-05 -5.45677e-06 -4.73468e-20)
(6.03972e-05 -6.37444e-06 0)
(6.49568e-05 -1.76205e-05 1.15234e-18)
(0.00114704 0.000158646 1.84184e-19)
(4.43899e-05 -8.71539e-06 4.56383e-20)
(0.000802157 3.68665e-06 3.91553e-23)
(4.24107e-05 5.69756e-05 2.71116e-19)
(8.83623e-05 -0.000161483 -8.71593e-19)
(0.000502042 -0.000143286 9.76122e-19)
(3.74288e-05 -1.13939e-05 4.64213e-20)
(0.000790298 -1.12548e-05 -1.57846e-18)
(0.000819242 -1.99584e-05 -6.84953e-19)
(2.79376e-05 -1.35796e-05 0)
(6.71077e-05 1.32983e-05 8.69421e-20)
(0.00123839 0.00455867 9.12406e-19)
(8.97841e-05 2.67977e-05 8.81406e-20)
(0.000786946 8.87477e-05 0)
(0.000352628 -0.000105006 6.92195e-19)
(0.000363882 0.000281643 5.22369e-21)
(0.000381406 9.0793e-05 -1.02446e-18)
(0.00602143 0.00957282 -6.87301e-19)
(0.00614417 0.00970239 1.20787e-20)
(0.00573237 0.0105635 1.52786e-18)
(0.00079985 -7.80987e-05 0)
(7.80689e-05 4.15796e-05 0)
(0.000347053 2.96109e-05 4.05826e-24)
(7.6384e-05 1.81747e-05 -3.53489e-19)
(0.000922654 -2.47186e-05 0)
(0.000589147 2.7218e-05 3.23239e-19)
(0.000751384 4.54946e-05 2.20892e-18)
(0.000731783 -8.98894e-06 -5.4814e-19)
(0.000634129 1.36749e-05 -3.19341e-19)
(0.00169676 0.000531722 5.55871e-19)
(0.000809307 -1.098e-05 -1.14687e-18)
(0.000755991 3.90848e-05 -5.21947e-19)
(9.95404e-05 7.96173e-06 -1.76904e-19)
(0.000803458 0.00235385 0)
(0.000799797 1.85512e-05 0)
(0.000694272 1.33414e-05 -1.3967e-18)
(4.71676e-05 2.1868e-05 0)
(0.000276401 0.000277167 3.33517e-19)
(5.66715e-05 -2.39133e-05 0)
(5.43207e-05 -8.40699e-06 1.62745e-19)
(4.22054e-05 -6.35464e-05 -3.4354e-20)
(0.000745347 2.96187e-05 2.47273e-19)
(5.42276e-05 1.58597e-05 0)
(0.000767648 8.67175e-05 4.48754e-19)
(0.000732112 0.000301824 2.15114e-19)
(0.000950658 6.28072e-05 -4.06426e-20)
(5.23829e-05 3.07199e-05 -4.61168e-20)
(5.96289e-06 -5.43329e-05 0)
(0.000411878 0.000227164 1.73663e-19)
(1.76527e-07 4.20032e-05 0)
(0.00070999 -5.89113e-05 -6.10617e-19)
(0.000532022 -8.9982e-05 0)
(7.96885e-05 4.6711e-06 -1.78016e-19)
(3.78968e-06 -7.12524e-05 0)
(0.000793707 0.000231526 -3.48376e-19)
(4.10131e-06 -3.40816e-05 0)
(0.000407535 0.000322039 -1.21667e-23)
(0.000495852 0.000118086 0)
(0.000786408 2.87195e-05 1.52112e-23)
(2.34333e-06 2.90658e-05 -4.30393e-20)
(0.00042016 2.48852e-05 1.79996e-18)
(0.00100126 8.01512e-05 4.24998e-20)
(0.00105984 1.45336e-05 6.5488e-22)
(0.000729862 0.000639635 2.72889e-19)
(7.12691e-08 7.74727e-05 0)
(7.32602e-06 -0.000144723 -3.18669e-19)
(1.2657e-05 -0.000243671 -1.12309e-18)
(-3.52739e-06 0.000118421 -6.07707e-19)
(0.000787319 -2.8224e-06 0)
(-2.44586e-06 0.000148894 0)
(0.000768325 -2.91211e-05 2.19796e-18)
(0.000702759 6.72876e-05 1.52373e-18)
(0.000390149 -2.58517e-05 0)
(6.32417e-05 0.000237478 -9.10779e-19)
(-5.53391e-07 0.000231743 5.05464e-19)
(0.000106687 0.00051511 6.37832e-19)
(0.000275552 0.000146619 -9.50934e-19)
(0.000839272 -2.07521e-05 1.37464e-19)
(0.000272695 9.93983e-06 5.41816e-19)
(-4.58288e-07 5.54982e-05 0)
(7.22424e-05 0.000333685 -1.11004e-18)
(0.000308313 0.000329338 -1.65002e-19)
(8.20408e-06 -0.000105429 1.49587e-19)
(0.000618103 0.000745298 0)
(0.000349217 0.000386966 5.86133e-20)
(0.000823099 -1.04675e-06 1.05259e-18)
(0.000628158 -8.61535e-05 -2.74721e-18)
(4.63867e-06 -0.000193794 0)
(0.0008028 -9.87586e-06 -1.13512e-19)
(0.000312009 -3.37313e-05 1.2691e-18)
(0.00277215 0.00083142 -3.42541e-19)
(-1.19953e-05 0.00018142 -6.24768e-19)
(-3.20114e-05 0.00022866 1.65023e-18)
(0.000923235 1.85976e-05 -3.96773e-20)
(7.72312e-05 -1.12604e-06 -7.64692e-19)
(0.000769115 5.24578e-05 -3.96578e-19)
(0.000981113 2.49767e-05 -4.18505e-20)
(8.96819e-05 0.00041737 -6.0836e-19)
(0.000458736 8.61137e-05 -5.0408e-19)
(6.25271e-05 -1.19e-06 1.59338e-19)
(0.000853767 -3.62273e-05 -1.07968e-18)
(0.00164333 0.000247043 -1.14968e-18)
(-4.16783e-06 9.01898e-05 5.05944e-19)
(0.00077111 9.26173e-07 -5.09305e-19)
(0.000866875 0.000527695 -8.01307e-20)
(0.00014541 0.000914935 0)
(0.000538188 7.0001e-05 0)
(0.000257115 6.45794e-05 -1.63467e-18)
(7.11419e-05 6.92346e-05 -1.40235e-18)
(3.81848e-05 2.67482e-05 0)
(0.00435932 0.00821877 -1.10147e-20)
(0.00436325 0.00817992 5.53965e-20)
(0.00454793 0.00834606 -3.78019e-20)
(0.00398312 0.00757829 0)
(0.00413655 0.00770956 5.61469e-19)
(0.00436793 0.00821434 -1.16612e-19)
(0.00381008 0.00760871 5.22178e-19)
(0.00430289 0.00822943 0)
(0.00374871 0.00811866 6.62202e-19)
(0.00429304 0.00824258 2.69944e-19)
(0.000810569 -2.3438e-05 -1.36678e-18)
(0.000711879 7.98613e-05 0)
(0.000219281 8.21408e-05 1.30338e-19)
(6.07278e-05 2.3008e-05 8.898e-20)
(8.81992e-05 5.59548e-05 6.94009e-19)
(0.000117869 5.3809e-05 -3.48657e-19)
(0.00011331 1.90307e-05 0)
(5.95195e-05 9.31593e-06 8.34954e-20)
(0.000203409 0.000150734 0)
(0.000176912 6.70843e-05 -5.35063e-20)
(0.000329149 0.000232445 -5.19652e-21)
(6.41373e-05 5.33125e-05 -4.46665e-19)
(0.000102549 3.93541e-05 -8.70023e-20)
(9.982e-05 7.39611e-05 1.33889e-21)
(0.000244489 0.000370503 -6.79769e-19)
(0.000168445 0.00112916 0)
(5.03763e-05 6.08114e-05 3.50119e-19)
(0.000227832 0.00185809 0)
(0.000204538 0.000261948 7.19055e-19)
(4.68188e-05 -8.09243e-06 1.13593e-19)
(0.000454859 0.000172253 -1.75822e-19)
(0.000793019 2.92243e-05 -1.88955e-18)
(5.39757e-05 1.36493e-06 5.20847e-24)
(0.000158634 4.61928e-05 2.29002e-19)
(0.000236401 0.000117234 -9.17844e-20)
(0.000852246 0.000678167 3.41836e-19)
(0.000672975 0.00164725 -9.42411e-21)
(0.000430507 0.00133215 -9.6329e-21)
(0.000995076 0.000552044 0)
(0.000117408 -9.68908e-06 1.14092e-18)
(0.000132059 3.22e-05 -4.52321e-20)
(0.000404307 -0.000195312 -1.16157e-18)
(0.000793068 4.40179e-05 0)
(0.00018228 5.06107e-05 3.69509e-19)
(0.000213831 0.00142007 0)
(0.00101356 0.000718048 -7.45236e-20)
(0.00079978 4.70023e-05 -1.86172e-19)
(9.88496e-05 -1.77547e-05 -3.06066e-19)
(0.000791666 0.000289033 -2.12342e-20)
(9.04094e-05 -2.48714e-05 -6.09988e-19)
(0.000225661 0.000186703 8.80985e-20)
(0.000223351 0.000312774 -3.5206e-19)
(0.000851344 0.000229207 0)
(0.000766904 1.76997e-05 0)
(0.000259356 0.00015559 1.80352e-19)
(0.000235881 2.76059e-05 2.52597e-24)
(0.00018467 0.000216201 0)
(0.000279051 0.000629026 -5.66098e-21)
(0.000322836 2.24514e-05 0)
(0.000306448 0.000574952 0)
(0.000118219 9.7159e-05 -1.37437e-21)
(0.000780606 -3.08492e-05 -9.5343e-19)
(0.000866303 -2.29362e-05 7.87012e-19)
(0.000137571 7.52094e-05 -1.52936e-19)
(0.000924431 0.000150142 8.6925e-20)
(0.000813019 4.98787e-05 3.33872e-19)
(0.000780887 3.24886e-05 -2.99663e-19)
(0.000969427 0.000401866 0)
(0.000416897 0.000128185 6.37279e-19)
(0.000862055 0.000311253 2.13455e-20)
(0.000539099 0.000171064 0)
(0.000278 0.000432718 4.17997e-19)
(0.000253048 0.000230685 -8.61452e-20)
(0.00107702 0.00038417 -7.98255e-19)
(0.000577306 0.00012342 -1.82991e-19)
(0.000781894 0.000129466 -7.4546e-21)
(0.000803538 3.26114e-05 9.52202e-20)
(0.000121061 -9.84331e-05 -2.02126e-18)
(0.00071155 0.000369196 2.2378e-19)
(0.000618295 7.96231e-05 2.35154e-20)
(0.000674184 0.000270334 1.31558e-23)
(0.000694657 0.000434209 -4.17576e-19)
(0.00082113 2.87932e-05 9.15942e-20)
(7.92677e-05 9.35975e-05 0)
(0.000622186 0.000430392 -4.75446e-20)
(0.000184394 0.000117473 0)
(0.00036173 0.000515946 -2.68923e-19)
(0.000307743 0.000184983 0)
(0.000644273 0.000212537 3.62615e-19)
(0.000616529 0.00027897 -4.46321e-20)
(8.26977e-05 0.000110081 6.30721e-19)
(0.000905363 0.000104663 -1.60121e-18)
(6.85903e-05 3.03086e-05 2.62488e-19)
(0.000925616 8.81329e-05 -1.65554e-18)
(0.000733443 -1.47866e-05 1.62682e-19)
(0.000775796 -1.29683e-05 1.92832e-18)
(0.000791085 3.45499e-06 -1.34154e-19)
(0.000670067 7.45647e-05 0)
(0.000892248 1.573e-05 9.03136e-19)
(0.000909373 0.000246745 -4.35633e-19)
(0.000736076 8.15731e-05 -4.88353e-19)
(0.000746447 0.000234141 -8.99662e-20)
(0.00025457 -8.22739e-05 -2.12183e-18)
(0.000706431 9.56282e-05 9.06159e-19)
(0.00057228 0.000571674 0)
(0.000142097 -8.40918e-05 0)
(0.00115217 0.00044649 5.04669e-19)
(0.00085183 -0.000229744 -3.29205e-18)
(0.00122905 0.000412582 5.82372e-19)
(0.00125476 0.00073292 -6.46448e-20)
(0.000784649 5.36645e-05 -2.15218e-19)
(0.000786064 9.81567e-05 -1.4302e-18)
(0.000755689 0.00010239 1.58612e-18)
(0.000743192 -5.73431e-05 9.76776e-20)
(0.000650309 0.000341975 -4.49541e-20)
(0.000114315 0.000155375 5.45877e-23)
(0.000681491 -7.20728e-05 2.70677e-19)
(0.000271731 -0.000155281 -7.5165e-19)
(0.000590556 0.0001973 0)
(0.000657558 2.79446e-05 1.00184e-19)
(0.000640887 4.82113e-06 -3.83933e-19)
(0.00037179 0.000186432 4.00446e-20)
(0.000753768 0.000492472 -1.68911e-19)
(0.000158792 9.59576e-05 1.27892e-25)
(0.000784977 0.000378039 0)
(0.00093953 0.000319445 4.24313e-20)
(0.000702129 -0.000116777 -6.28072e-19)
(0.000332117 0.000109951 5.06551e-19)
(0.000868883 0.000408223 0)
(5.88109e-05 3.98527e-05 1.36464e-19)
(0.000458679 0.000273266 2.18324e-19)
(0.000434262 -7.65828e-05 -7.23947e-19)
(0.000200464 -0.000122361 -1.08066e-18)
(0.000739776 -3.98531e-05 -4.86716e-19)
(0.000779718 -0.000110405 -1.96631e-19)
(0.000533787 0.000753093 -1.18678e-18)
(0.000813409 7.49707e-05 -6.73774e-20)
(0.000791062 -0.000119936 1.28267e-18)
(0.000647907 0.000102227 2.32503e-20)
(0.000500526 0.000223332 -1.6907e-19)
(4.7005e-05 -2.75705e-05 -8.93804e-20)
(0.000220026 -2.0081e-05 2.43568e-18)
(3.89058e-05 7.45705e-07 -1.98788e-19)
(0.000758751 7.96996e-05 3.65833e-19)
(0.000620269 0.000147812 0)
(0.000211721 -3.82817e-05 -1.06609e-18)
(0.000133995 1.93623e-05 3.1863e-19)
(0.000149668 -3.28819e-05 -2.03044e-23)
(0.000773954 0.000114257 -3.18644e-19)
(0.00015894 -5.26984e-06 0)
(0.00055672 0.000247277 0)
(0.000111513 0.000341457 -3.70236e-19)
(0.000798722 0.000163295 2.1047e-18)
(3.18478e-05 1.70848e-06 0)
(0.000789067 -3.87759e-05 0)
(5.8608e-05 -2.72715e-05 0)
(0.000839113 2.32913e-05 -4.47098e-21)
(0.000817757 -6.69435e-05 0)
(0.00434415 0.00822403 8.22739e-20)
(0.00425418 0.0082315 1.36353e-19)
(0.000832026 1.22874e-05 0)
(0.000733852 -6.92406e-05 8.28564e-19)
(0.000154538 0.000142044 1.5227e-19)
(0.000918415 5.85581e-05 8.03993e-19)
(0.000136166 0.000119846 2.39213e-20)
(0.000718348 -7.87855e-05 6.36466e-19)
(4.36096e-05 1.41998e-05 0)
(4.13626e-05 -1.97481e-05 -4.57728e-20)
(0.000852117 9.22883e-05 -4.86868e-19)
(5.28148e-05 -3.80275e-05 -6.83367e-19)
(0.000728439 0.000133066 -4.32115e-20)
(0.000167338 0.000176126 -1.91956e-19)
(0.000789342 1.86982e-05 0)
(0.00457397 0.0085373 1.86866e-21)
(0.000163456 0.000767744 3.40487e-19)
(0.000140581 -4.49684e-05 -9.29679e-19)
(8.09606e-05 -3.65324e-05 -1.1913e-18)
(0.000850646 2.13949e-05 1.93119e-20)
(0.000547936 0.000419466 0)
(0.000383001 0.000419505 -2.60628e-19)
(0.000126886 -4.4247e-05 1.20742e-18)
(0.000808791 6.08531e-06 7.86418e-20)
(5.24754e-05 1.80989e-06 4.15311e-19)
(0.000614823 -5.15581e-05 1.19593e-18)
(0.00076637 -1.05881e-06 -6.08438e-19)
(0.000101059 -5.32398e-05 1.74385e-18)
(0.000822677 9.61718e-06 4.24064e-24)
(0.000825728 1.72632e-05 -3.84383e-20)
(0.000805168 9.94499e-05 0)
(0.000752752 4.68316e-05 0)
(0.00572834 0.00725333 2.77127e-19)
(4.04308e-05 6.75686e-06 -1.22001e-19)
(0.000207548 -6.40572e-05 7.86604e-19)
(0.000696048 0.000117042 -7.11059e-19)
(4.50124e-05 -1.23544e-06 2.0552e-19)
(0.000552672 -1.4458e-05 -7.38783e-19)
(0.000667468 -2.92716e-05 1.55573e-18)
(0.000669817 0.000156912 -3.62824e-19)
(0.000785911 -7.01238e-05 3.64952e-19)
(0.000110108 -2.61464e-05 1.13886e-18)
(0.000634231 1.99639e-05 -3.26425e-19)
(0.000835863 7.75895e-05 0)
(0.000516628 0.000305914 4.29699e-20)
(0.000888052 1.84792e-05 -9.38203e-19)
(3.90493e-05 -5.86777e-06 9.29267e-19)
(0.000765325 -1.33613e-05 9.5947e-19)
(0.00076919 -8.31284e-05 -9.70932e-19)
(0.000674439 3.47482e-05 -5.75168e-19)
(0.000471435 -3.21629e-05 -5.36512e-19)
(0.00426871 0.008237 3.00499e-19)
(0.00422298 0.00831606 -3.13146e-19)
(0.00427828 0.00794877 3.48746e-19)
(0.00434959 0.00821656 2.62327e-19)
(0.000829604 7.53772e-06 1.45718e-19)
(0.00411638 0.0080586 0)
(0.00419833 0.00819317 -5.78869e-19)
(6.11829e-05 -6.7737e-07 -1.01662e-18)
(0.00422723 0.00828224 -6.36435e-20)
(0.00422896 0.00826831 -3.30737e-19)
(0.00632483 0.0101962 0)
(0.00596281 0.00960245 4.4651e-20)
(0.00630006 0.0103016 0)
(0.00595646 0.00958708 2.05505e-19)
(0.00622599 0.0104465 2.89219e-19)
(0.00592365 0.00956641 2.82032e-20)
(0.00611275 0.0106152 -8.33387e-19)
(0.00594308 0.00953246 2.9952e-20)
(0.0035526 0.00897828 -1.96674e-19)
(0.00419514 0.0082976 4.71553e-21)
(0.00427674 0.00826356 1.09778e-19)
(0.0042372 0.00828323 6.20335e-20)
(0.000841844 0.000172217 4.56013e-20)
(2.36082e-05 2.66449e-06 0)
(0.000622472 -0.000146138 0)
(0.000797205 3.53069e-05 0)
(0.00239869 0.00106021 4.23407e-21)
(0.000608072 -8.92976e-06 1.74797e-19)
(5.04589e-05 9.60778e-06 4.63255e-20)
(2.70682e-05 -3.22507e-05 1.68606e-18)
(0.000831658 3.3424e-05 0)
(3.52774e-05 1.77918e-05 -1.95676e-19)
(0.000147942 0.000233532 0)
(4.2126e-05 -1.10541e-06 0)
(3.50619e-05 -2.06239e-06 0)
(0.000794089 0.00013794 1.15786e-20)
(0.000854708 2.93159e-05 1.7916e-19)
(3.80925e-05 0.000358278 2.4336e-22)
(0.000162264 0.000278825 -1.87956e-18)
(0.00058353 0.000347566 -8.74595e-20)
(0.000859916 0.000117796 5.9985e-19)
(0.000734787 -0.000559626 6.75115e-19)
(0.000312417 0.00108978 0)
(0.000475746 0.000514652 2.7065e-18)
(0.000105653 0.000148901 -1.82829e-18)
(4.776e-05 6.4916e-07 0)
(0.000871754 -2.30059e-06 3.64572e-20)
(2.258e-05 4.76414e-05 1.67849e-18)
(0.000883478 2.81407e-05 2.75156e-19)
(0.00012596 -0.000368342 3.8586e-18)
(0.000910043 4.59237e-05 -2.74748e-19)
(0.00156666 9.84883e-05 7.63378e-19)
(4.96641e-05 -1.40509e-05 8.42654e-20)
(4.61286e-05 1.11599e-05 -8.75934e-19)
(4.42219e-05 0.00017213 0)
(0.000849173 0.00011765 5.96654e-19)
(0.000472097 0.000374211 2.4198e-19)
(0.000878849 1.65629e-05 -3.95155e-20)
(0.000714805 -1.74644e-05 2.60822e-19)
(0.00064444 -0.000228085 0)
(0.00603812 0.00958847 -1.93213e-19)
(0.0060245 0.00956918 2.9984e-19)
(0.00625767 0.00982969 -6.78611e-19)
(0.00598399 0.00959644 -7.23586e-20)
(4.62478e-05 0.000116808 8.15127e-19)
(0.000870337 4.30002e-05 1.04765e-22)
(0.00602435 0.00957596 -2.93242e-19)
(0.00607332 0.00961918 6.21892e-19)
(0.0063239 0.0100158 -4.77889e-19)
(0.00598454 0.0095988 -5.98162e-20)
(0.000114436 0.000622416 -2.06122e-20)
(0.00020459 -0.000163664 -8.11282e-19)
(0.000885982 -1.64573e-06 -7.7065e-19)
(0.000696463 0.000215398 0)
(0.000648327 -2.59352e-05 0)
(0.000185499 0.00039239 3.43167e-19)
(0.000607768 0.000591446 -5.41891e-19)
(2.64454e-05 -3.34493e-06 1.82081e-19)
(0.000211081 0.000463263 -7.53484e-19)
(0.000987287 0.00095079 -1.15047e-19)
(0.000713986 0.000174525 0)
(0.000757653 0.000164736 1.32975e-19)
(0.0062924 0.00581173 1.19084e-18)
(0.000665121 0.00111035 8.44887e-20)
(4.72581e-05 4.67627e-05 -7.60044e-20)
(0.000856305 2.90558e-05 0)
(0.000860899 9.88137e-06 -3.60245e-20)
(4.62918e-05 7.60759e-06 -2.00625e-19)
(4.04012e-05 9.11467e-06 1.96873e-19)
(0.000802763 2.1275e-05 5.41289e-19)
(0.000944028 0.000112908 6.72268e-19)
(0.000782391 8.91815e-05 0)
(0.000264756 -0.000241721 -4.09033e-19)
(0.000863583 0.000135782 3.94836e-19)
(4.73514e-05 -9.15765e-05 2.07233e-19)
(0.00152461 0.000379214 -2.59178e-18)
(0.000795625 2.83589e-06 0)
(0.000764769 0.000122282 3.77251e-19)
(9.15133e-05 0.000407113 0)
(0.00100268 0.00817142 4.71443e-19)
(0.000466272 0.000518969 -1.23285e-18)
(0.000521106 0.000949198 -1.87518e-19)
(0.0008516 2.43376e-05 -1.47559e-19)
(2.19541e-05 3.40358e-05 0)
(0.000900775 7.8379e-05 6.16875e-19)
(0.00424593 0.00822738 9.72439e-20)
(0.00420161 0.0082844 4.77782e-20)
(0.00419548 0.00803782 4.84263e-19)
(0.00416558 0.00815549 -3.47403e-19)
(0.0059808 0.00959106 9.18962e-20)
(0.00426225 0.00820089 2.55952e-20)
(0.00528412 0.00793021 -5.94989e-19)
(0.00435822 0.00830337 5.83324e-21)
(0.00493542 0.00797948 5.55712e-19)
(0.00434572 0.00826439 -8.8e-20)
(0.00463768 0.00791774 0)
(0.00432745 0.00824456 -1.07804e-19)
(0.00441721 0.00791576 5.31513e-19)
(0.00430038 0.00823001 1.0136e-19)
(0.00428483 0.00796699 0)
(0.00433323 0.00823944 2.15487e-19)
(0.00432952 0.00815049 7.81152e-19)
(0.00413167 0.00811021 -5.34484e-19)
(0.00424309 0.00822331 4.24467e-19)
(0.00421853 0.00832271 2.97673e-19)
(0.0060181 0.00957739 -3.92295e-21)
(0.00422498 0.00825537 4.02766e-20)
(0.00599868 0.00957933 0)
(3.3269e-05 1.07859e-05 -1.93773e-19)
(0.0021287 0.00648931 2.34236e-19)
(0.000833084 4.71989e-06 1.11106e-19)
(0.000842964 2.04684e-05 0)
(4.83237e-06 5.34067e-06 -4.07341e-19)
(0.000123191 -0.000209656 7.05021e-19)
(2.2635e-05 7.14311e-05 2.12721e-18)
(0.000795348 0.000187549 -9.19583e-20)
(0.000625909 5.48571e-06 7.13118e-19)
(5.50165e-06 -6.22262e-06 3.16403e-19)
(2.96525e-05 -5.12384e-05 -1.88268e-18)
(0.000623993 5.82037e-06 1.64995e-19)
(0.000786526 0.000106096 -3.05024e-20)
(0.000623807 -4.90992e-06 1.4954e-19)
(0.000435121 0.000667564 0)
(0.000149901 -0.000149989 1.17538e-18)
(0.000829499 2.39958e-05 1.53973e-19)
(2.66769e-05 3.1099e-05 0)
(0.000101095 0.000555847 -6.43588e-19)
(0.000622035 0.000530538 1.31389e-18)
(0.000328789 0.000723244 0)
(0.000618759 -2.34716e-06 0)
(0.000628243 0.000116268 1.18634e-18)
(2.95227e-05 5.11235e-05 -3.58254e-18)
(2.45381e-05 1.23209e-05 3.81325e-19)
(0.000108955 0.000157378 0)
(7.04753e-05 -4.70079e-05 0)
(8.18624e-05 0.000126816 2.04478e-19)
(0.000885509 0.000183005 3.57019e-19)
(0.00075081 -8.53926e-05 -1.40049e-18)
(3.07323e-05 4.28586e-05 0)
(0.000639304 0.000132243 -6.12283e-20)
(0.000637496 7.68989e-06 -1.58231e-19)
(0.000888941 -6.37791e-06 1.05573e-18)
(0.000244347 0.000543668 6.4459e-19)
(0.000816497 0.00012968 0)
(3.9524e-05 -3.68362e-05 5.49534e-19)
(4.69498e-06 -1.9552e-05 -3.2653e-19)
(0.0011904 -2.20662e-05 0)
(0.000886624 0.00205591 0)
(0.00106375 -0.000172742 0)
(0.000960404 0.000193403 4.35801e-19)
(0.000870627 -3.95279e-06 -2.84279e-19)
(0.000879856 0.000129393 -6.90006e-19)
(0.000631726 4.32852e-05 0)
(4.73061e-05 8.0876e-05 -1.75128e-19)
(0.000172526 0.00033163 1.10324e-18)
(0.000773601 1.82218e-05 -5.89544e-23)
(0.00106132 0.000176319 -6.82908e-19)
(0.00105906 0.000123864 0)
(3.87261e-06 1.67652e-05 2.56205e-19)
(3.01361e-05 -2.41002e-05 -1.98294e-19)
(0.000760911 5.8002e-05 7.02758e-21)
(6.38332e-05 -0.000123233 0)
(0.00101057 0.000265265 9.7001e-19)
(0.00510884 0.0098999 -2.94446e-19)
(0.00290925 0.00957675 1.32948e-18)
(0.00010562 -0.000125563 -1.95295e-19)
(9.74392e-05 -8.80129e-05 1.89796e-18)
(0.00116768 0.000230403 1.70756e-19)
(0.00124674 0.00103015 2.38903e-19)
(0.000813507 2.0801e-05 -7.3801e-19)
(0.000218839 0.000912594 -2.43718e-19)
(0.000766873 0.000866595 -2.22045e-19)
(0.00064972 -4.78326e-05 0)
(0.000122115 0.00075421 0)
(0.000100911 0.000287328 -6.78466e-23)
(0.000847616 -1.20439e-05 -5.67075e-23)
(0.000831729 -2.65574e-05 1.54077e-19)
(0.00256912 0.00189712 -1.26435e-18)
(0.00162397 0.00923005 -1.22086e-19)
(0.00073753 4.51295e-05 4.88497e-19)
(0.00621036 0.00403166 -1.86705e-19)
(0.00601887 0.00974079 -3.56724e-20)
(0.00461126 0.00847846 1.48951e-20)
(0.000753792 0.000121644 -2.19079e-18)
(0.000809015 3.93509e-05 -4.2993e-24)
(1.88256e-05 -1.52513e-05 -3.5513e-19)
(5.32422e-05 0.000103789 -3.56489e-19)
(9.21316e-05 0.000283431 8.93867e-19)
(1.86665e-05 2.35218e-05 5.00518e-19)
(9.59774e-05 0.000242674 3.77335e-19)
(0.000798337 7.12331e-05 0)
(0.00518957 0.00898207 -4.31902e-21)
(0.00137342 0.000597978 -2.63e-20)
(0.000817685 1.49082e-05 3.61039e-19)
(7.97127e-05 -0.000101531 0)
(0.00192173 0.000639659 5.57618e-19)
(1.6346e-05 1.35324e-05 -2.75734e-19)
(4.21437e-05 3.723e-05 9.91869e-20)
(0.00131902 0.0014331 6.51633e-19)
(0.000845563 2.86694e-05 1.82152e-19)
(1.68309e-05 -4.40582e-06 -1.73723e-19)
(0.00201982 0.00144129 -1.08267e-18)
(0.000131856 0.000193177 -8.33429e-19)
(0.00403283 0.00856209 -1.13375e-18)
(1.49201e-05 3.79927e-06 8.99612e-20)
(0.000218527 -0.000481027 -1.25892e-18)
(7.19339e-05 -6.21638e-05 4.13999e-20)
(0.00150058 0.000868224 0)
(0.000993627 0.000146125 -4.93719e-22)
(0.000410625 0.000849875 -4.10317e-20)
(0.000846773 1.94015e-05 -2.33436e-19)
(8.55084e-05 0.000201699 7.49049e-19)
(6.50666e-05 -7.74955e-05 4.1239e-19)
(2.52443e-05 2.10579e-05 -9.66659e-20)
(4.38402e-05 0.000110429 -3.26759e-19)
(0.000215276 -0.000335626 -5.51015e-19)
(0.00328325 0.00344785 2.87325e-21)
)
;

boundaryField
{
    back
    {
        type            empty;
    }
    ingreso
    {
        type            fixedValue;
        value           uniform (0.0008 0 0);
    }
    salida
    {
        type            zeroGradient;
    }
    front
    {
        type            empty;
    }
    defaultFaces
    {
        type            noSlip;
    }
}


// ************************************************************************* //
