/*--------------------------------*- C++ -*----------------------------------*\
  =========                 |
  \\      /  F ield         | OpenFOAM: The Open Source CFD Toolbox
   \\    /   O peration     | Website:  https://openfoam.org
    \\  /    A nd           | Version:  8
     \\/     M anipulation  |
\*---------------------------------------------------------------------------*/
FoamFile
{
    version     2.0;
    format      ascii;
    class       volScalarField;
    location    "4.2";
    object      p;
}
// * * * * * * * * * * * * * * * * * * * * * * * * * * * * * * * * * * * * * //

dimensions      [0 2 -2 0 0 0 0];

internalField   nonuniform List<scalar> 
4320
(
3.32e-06
8.60828e-07
3.22091e-06
1.30463e-05
1.30341e-05
2.31045e-06
1.21516e-06
6.89741e-06
1.13146e-05
1.16284e-06
2.73387e-06
7.4261e-06
2.60007e-06
5.10163e-06
1.21201e-05
3.69092e-06
8.13376e-06
1.32428e-05
2.86867e-06
3.41531e-06
3.14051e-06
5.8654e-06
1.28314e-05
2.96745e-06
8.14295e-06
8.53937e-06
7.88163e-06
8.7055e-06
3.08911e-06
1.30566e-05
9.67576e-06
7.31666e-06
4.85051e-06
7.0096e-06
1.53012e-06
1.08882e-06
3.00343e-06
7.44729e-07
1.27705e-05
4.03887e-06
4.46964e-06
9.56298e-06
1.30006e-05
8.83065e-06
1.26742e-05
9.20149e-06
5.60894e-08
5.19723e-06
1.24538e-05
4.10293e-06
2.70701e-06
3.109e-06
1.30311e-05
1.2329e-05
1.10105e-05
6.95626e-06
1.27167e-06
6.87146e-06
5.56684e-10
1.3047e-05
3.27747e-06
1.75529e-06
2.02306e-06
3.82798e-06
1.30036e-05
2.8369e-06
1.30101e-05
2.40978e-06
5.69821e-06
6.26389e-07
6.5324e-06
7.97526e-06
8.71759e-06
9.95368e-06
4.37575e-06
6.29004e-06
9.78646e-07
1.24425e-05
1.30499e-05
1.29814e-05
2.36793e-06
5.94894e-06
8.82628e-06
7.88755e-06
1.30554e-05
1.4652e-06
1.30593e-05
4.1464e-06
1.28905e-05
7.20069e-06
1.28413e-05
2.24003e-06
1.24848e-05
1.30471e-05
3.53542e-06
2.16353e-06
8.95072e-06
3.55362e-06
8.14822e-06
1.23727e-05
1.30623e-05
4.65383e-06
2.09958e-06
5.16082e-06
3.15143e-07
9.03093e-06
9.52375e-06
1.30547e-05
1.26777e-05
7.76311e-06
1.32609e-05
3.34732e-06
9.74556e-06
3.61717e-06
8.81588e-06
1.32376e-06
1.24466e-05
1.21583e-05
1.30718e-05
4.39747e-07
9.67415e-06
8.56269e-06
1.27587e-06
1.23994e-05
4.59742e-06
4.33761e-06
2.5594e-06
4.79855e-06
8.83332e-06
7.09384e-06
9.86151e-06
6.28964e-06
3.45644e-06
5.32876e-06
1.27728e-05
1.30485e-05
2.93955e-06
1.30514e-05
4.81233e-06
1.30571e-05
2.11344e-06
2.04285e-06
1.38305e-07
8.9368e-08
1.27727e-05
9.77935e-06
5.42656e-06
1.30285e-05
4.83276e-06
2.04488e-07
3.96581e-06
4.92173e-07
1.25322e-05
1.23512e-05
2.04095e-06
1.55272e-06
1.2725e-05
1.23861e-05
1.30409e-05
1.88549e-06
1.30662e-05
8.54454e-06
6.74414e-07
1.13401e-06
9.09794e-06
1.66159e-06
8.2747e-06
1.24624e-05
1.04795e-05
1.04248e-05
4.95684e-06
2.20287e-06
1.25174e-06
7.62996e-07
1.30471e-05
1.26333e-05
1.28136e-05
9.81137e-06
9.78741e-06
2.37303e-06
1.27721e-05
1.00615e-05
1.28136e-05
1.30182e-05
1.22935e-05
1.21322e-05
1.30688e-05
4.94584e-07
3.34388e-06
1.28086e-05
1.31429e-06
6.12057e-06
1.2844e-05
1.52776e-06
1.30193e-05
9.3295e-06
8.65407e-06
1.09239e-06
2.1707e-06
4.23914e-06
1.2785e-05
3.66411e-06
8.00425e-06
5.57007e-06
1.04808e-05
8.93615e-06
1.30481e-06
1.30642e-05
1.02991e-05
1.29983e-05
5.19822e-06
1.30557e-05
1.26927e-05
1.30673e-05
1.30602e-05
1.30681e-05
1.30566e-05
1.30628e-05
1.29169e-05
1.25765e-05
1.30495e-05
2.31796e-06
1.30447e-05
1.07279e-05
8.66736e-06
1.28819e-05
1.24009e-05
1.18669e-05
1.27894e-05
1.3213e-05
9.96551e-06
1.24046e-05
8.00233e-06
5.32372e-06
9.62165e-06
1.30257e-05
9.49515e-06
4.28072e-06
1.74367e-06
5.55946e-06
1.25833e-05
1.22815e-05
1.10273e-05
3.26544e-06
2.58763e-06
1.18323e-07
1.29281e-05
1.30277e-05
5.04988e-06
4.14449e-06
8.5679e-06
6.068e-07
7.09508e-06
8.05014e-06
7.9225e-06
2.7704e-06
1.30637e-05
1.04532e-06
8.6255e-06
6.53314e-07
2.41761e-06
1.22978e-05
5.60131e-06
5.39914e-06
1.29944e-05
4.51376e-06
1.30271e-05
1.0859e-06
1.20612e-05
1.30337e-05
5.75669e-06
1.30681e-05
2.17659e-06
8.42891e-06
1.29264e-05
8.78735e-06
1.30192e-05
6.2138e-06
1.30456e-05
1.30702e-05
1.3032e-05
9.91868e-06
8.24497e-06
1.29694e-05
6.25162e-06
9.13533e-06
8.95933e-06
1.30352e-05
7.79256e-06
1.22465e-05
7.95922e-06
6.25406e-06
1.30613e-05
1.51825e-06
1.26934e-05
1.19704e-06
8.70542e-06
1.00363e-06
1.00823e-05
9.89124e-06
1.30649e-05
6.42591e-06
4.48438e-06
1.54128e-06
5.2816e-06
1.23029e-05
6.41047e-06
9.94126e-07
4.40589e-06
2.0394e-06
3.38395e-06
7.81821e-06
1.22721e-05
1.27561e-05
6.02267e-06
1.23743e-06
1.30369e-05
7.56272e-06
1.24011e-05
3.42076e-06
9.46786e-06
1.30668e-05
1.29643e-05
1.30722e-05
9.44143e-06
1.30755e-05
9.80281e-06
1.26201e-05
1.22669e-05
9.28131e-07
5.49192e-06
4.00189e-06
6.10526e-06
1.30624e-05
1.24422e-05
1.01123e-05
1.22114e-05
1.30465e-05
8.65239e-06
1.3027e-05
8.34949e-06
1.00603e-05
7.14762e-06
1.22853e-05
1.2302e-05
1.30763e-05
1.29699e-05
1.26875e-05
1.23786e-05
1.30452e-05
9.2576e-06
7.84194e-06
1.30526e-05
1.1507e-05
7.2286e-06
1.25741e-05
9.25655e-06
1.02302e-05
8.08977e-06
5.81932e-06
1.2497e-05
9.32772e-06
6.83522e-06
1.21033e-05
1.03621e-05
1.57012e-06
1.30591e-05
1.29983e-05
1.29519e-05
6.73526e-06
4.94265e-06
1.25792e-05
8.29205e-06
1.2713e-05
1.09811e-05
1.299e-05
3.62495e-07
6.29019e-06
1.30487e-05
8.98698e-06
1.30588e-05
1.17712e-05
1.26615e-05
9.91602e-06
1.28127e-05
1.00093e-05
1.30673e-05
1.30251e-05
8.79026e-07
1.30601e-05
7.93792e-07
1.29306e-05
1.30502e-05
1.3047e-05
9.35409e-06
1.3052e-05
3.8171e-06
1.14493e-05
1.02832e-05
7.69075e-06
1.19708e-05
1.23366e-05
1.24341e-05
1.30424e-05
1.30628e-05
1.16016e-05
1.01179e-05
7.42466e-06
9.52231e-07
7.76082e-06
1.10654e-05
1.25767e-05
1.24524e-05
1.30219e-05
9.78823e-06
1.30446e-05
6.0196e-06
1.3054e-05
1.21309e-05
1.19768e-05
5.59715e-07
1.30339e-05
9.83074e-06
1.30077e-05
3.10445e-06
1.24922e-05
1.13196e-05
1.24202e-05
1.306e-05
1.31337e-05
1.29439e-05
7.91217e-06
1.30464e-05
1.29077e-05
1.21821e-05
1.30552e-05
1.01315e-05
1.00896e-06
8.05106e-06
1.28259e-05
5.26738e-06
1.30043e-05
1.27644e-05
1.30609e-05
1.0283e-05
1.30189e-05
7.98267e-06
1.28497e-05
9.85823e-06
1.21562e-05
1.03131e-05
1.27422e-05
1.30505e-05
9.38543e-06
1.24803e-05
1.30672e-05
9.99439e-06
1.20841e-05
1.31329e-05
1.3063e-05
1.30058e-05
1.27843e-05
1.25503e-05
9.89064e-06
1.19837e-05
6.73581e-06
9.38811e-06
1.28405e-05
1.2529e-05
1.30666e-05
9.78548e-06
1.27913e-05
1.23741e-05
1.22823e-05
9.48826e-06
5.35429e-06
6.69388e-06
1.27586e-05
1.15356e-05
1.3058e-05
8.57145e-06
1.30539e-05
8.18786e-06
1.30621e-05
1.29398e-05
1.25774e-05
9.88199e-06
1.00881e-05
1.31207e-05
9.37729e-06
1.23109e-05
1.30417e-05
9.58262e-06
1.27648e-05
1.35435e-05
1.27345e-05
8.92016e-06
1.26863e-05
1.2982e-05
1.26178e-05
1.23268e-05
1.12406e-05
7.87163e-06
1.26335e-05
1.21913e-05
7.55171e-06
6.38744e-06
9.62961e-06
6.55817e-06
1.29791e-05
7.4581e-06
1.27208e-05
1.58655e-06
1.12265e-05
2.88071e-06
2.83738e-06
9.12748e-07
9.38039e-07
1.1211e-05
1.28197e-05
8.51145e-06
1.30425e-05
8.58164e-06
1.30373e-05
1.24161e-05
1.29191e-05
1.24666e-05
1.13814e-05
7.53193e-07
1.2504e-05
1.28531e-05
1.25193e-05
1.30621e-05
9.88695e-06
1.2892e-05
9.71273e-06
1.30563e-05
1.65654e-06
1.29452e-05
9.52964e-06
1.30615e-05
9.33627e-06
1.19587e-05
1.30772e-05
1.28102e-05
1.44726e-06
9.95769e-06
1.27172e-05
1.29766e-05
1.27445e-05
1.27542e-05
1.30613e-05
1.25802e-05
1.30102e-05
1.1442e-06
1.22405e-05
9.58148e-06
7.0097e-06
1.28463e-05
1.30149e-05
9.00528e-06
2.22756e-06
1.30665e-05
1.28318e-05
9.52865e-06
7.50503e-06
1.19178e-05
1.29032e-05
1.30159e-05
9.61717e-06
1.26407e-05
1.30569e-05
1.28924e-05
1.28322e-05
1.29389e-05
9.63475e-06
1.30644e-05
1.29893e-05
1.29416e-05
1.28588e-05
9.75023e-06
1.29608e-05
1.28006e-05
9.92841e-06
1.30561e-05
1.26416e-05
1.26164e-05
9.47705e-06
1.30339e-05
1.2709e-05
9.55614e-06
9.09357e-06
1.29236e-05
2.69574e-06
1.30532e-05
1.28806e-05
7.8626e-07
9.17689e-06
1.2706e-05
9.77587e-06
1.3072e-05
1.26962e-05
1.30208e-05
1.27953e-05
1.29051e-05
1.26784e-05
1.29726e-05
1.29061e-05
1.30672e-05
1.30267e-05
7.61638e-06
1.28509e-05
9.50519e-06
9.0476e-06
1.45413e-06
1.29832e-05
1.3014e-05
1.30617e-05
1.31997e-05
1.30555e-05
1.29994e-05
1.26901e-05
1.26762e-05
7.16471e-06
1.30568e-05
6.52928e-06
1.29838e-05
1.30658e-05
1.30632e-05
1.25324e-05
4.35604e-06
8.72487e-06
9.77298e-06
6.15193e-06
1.3069e-05
1.25297e-05
1.29546e-05
1.29329e-05
1.30375e-05
1.30562e-05
1.06521e-05
1.26595e-05
9.42798e-06
6.45327e-07
1.28512e-06
1.30369e-05
1.3019e-05
3.03846e-06
9.38414e-06
1.28724e-05
1.33251e-06
1.19302e-05
1.30617e-05
1.21495e-05
9.19312e-06
1.30397e-05
7.36684e-06
8.46089e-06
1.31096e-05
4.2223e-06
1.305e-05
8.72105e-06
9.59979e-06
1.30532e-05
1.30552e-05
9.17013e-06
1.31157e-05
8.88009e-06
1.27618e-05
1.30285e-05
1.30484e-05
1.3127e-05
1.26878e-05
1.29182e-05
9.10222e-06
1.30541e-05
1.29335e-05
1.30659e-05
8.53405e-06
1.29646e-05
1.21559e-05
9.41329e-06
9.32259e-06
1.29866e-05
1.2879e-05
1.30316e-05
1.30094e-05
1.29442e-05
1.30409e-05
1.30651e-05
9.28095e-06
1.29523e-05
1.29865e-05
9.39383e-06
1.22701e-05
1.30668e-05
1.3037e-05
1.3051e-05
1.30403e-05
1.27486e-05
9.50393e-06
1.31315e-05
1.30106e-05
1.30207e-05
1.30372e-05
1.30255e-05
1.30348e-05
1.25129e-05
1.30556e-05
1.22118e-05
1.32722e-05
4.41042e-06
1.30316e-05
1.17989e-05
9.12044e-06
1.30275e-05
9.58239e-06
1.30282e-05
1.29943e-05
1.3018e-05
9.25233e-06
1.28521e-05
8.58658e-06
1.30438e-05
7.2382e-06
1.3129e-05
1.29323e-05
7.86194e-06
1.30395e-05
1.2959e-05
1.30552e-05
1.3012e-05
1.30276e-05
1.31525e-05
1.3042e-05
9.08724e-06
1.30238e-05
1.2991e-05
2.30028e-06
2.78456e-06
1.31662e-05
1.32059e-05
1.26938e-05
8.74824e-06
1.30508e-05
1.30603e-05
1.23586e-05
9.01188e-06
1.30558e-05
1.30418e-05
2.35351e-06
7.28642e-06
1.29692e-05
1.31169e-05
1.30337e-05
8.98648e-06
9.11747e-06
8.97852e-06
9.06639e-06
1.27698e-05
1.29594e-05
1.30456e-05
8.62561e-06
9.35437e-06
1.183e-06
8.99566e-06
1.31731e-05
1.3049e-05
1.30499e-05
1.30328e-05
2.23377e-06
1.28342e-05
9.00331e-06
9.39878e-06
3.23131e-06
1.2778e-05
1.3052e-05
1.30207e-05
9.07749e-06
1.30526e-05
8.81712e-06
9.61772e-06
1.30587e-05
1.30397e-05
1.31541e-05
1.30534e-05
1.29739e-05
1.29883e-05
1.15024e-05
1.30585e-05
8.71817e-06
9.06868e-06
1.31751e-05
1.3186e-05
9.2271e-06
1.30342e-05
8.8555e-06
9.28442e-06
8.81219e-06
1.30643e-05
1.30423e-05
1.30507e-05
1.30603e-05
1.40691e-06
1.30121e-05
1.30173e-05
1.30636e-05
8.51923e-06
1.30297e-05
1.27183e-05
1.31112e-05
1.30254e-05
1.30087e-05
1.29436e-05
1.30255e-05
1.28763e-05
1.30596e-05
1.09128e-06
1.30308e-05
1.30476e-05
8.88481e-06
1.30218e-05
1.30495e-05
9.06522e-06
8.84278e-06
9.16285e-06
7.9724e-06
1.30522e-05
1.26271e-05
1.29425e-05
1.30593e-05
8.90029e-06
1.30511e-05
1.29946e-05
9.15873e-06
8.80689e-06
1.30525e-05
1.30599e-05
7.24991e-06
9.0733e-06
8.95581e-06
1.30479e-05
8.72595e-06
1.30547e-05
1.3057e-05
1.30632e-05
8.99992e-06
1.30549e-05
1.29978e-05
1.30414e-05
8.93571e-06
1.30575e-05
2.45253e-06
1.30383e-05
1.29321e-05
1.30187e-05
1.30493e-05
1.30581e-05
1.30548e-05
1.30135e-05
1.30519e-05
1.30508e-05
1.29852e-05
1.30577e-05
1.29832e-05
1.29813e-05
1.30048e-05
1.30571e-05
1.31201e-05
8.40994e-06
1.30135e-05
1.28932e-05
1.30513e-05
8.95394e-06
8.64718e-06
1.30427e-05
1.30087e-05
1.30494e-05
1.30404e-05
1.31441e-05
1.30609e-05
1.29641e-05
8.93279e-06
1.30528e-05
1.30494e-05
1.30454e-05
1.30295e-05
8.90884e-06
1.30502e-05
1.30529e-05
9.17096e-06
1.20854e-05
1.29748e-05
8.50966e-06
1.30407e-05
1.30117e-05
8.62206e-06
8.99856e-06
1.30234e-05
1.29954e-05
1.30454e-05
1.306e-05
9.23409e-06
1.29685e-05
1.30195e-05
1.30246e-05
1.30316e-05
8.76492e-06
1.30264e-05
1.30245e-05
8.78575e-06
1.30648e-05
1.30487e-05
8.48076e-06
1.29902e-05
1.30259e-05
9.0133e-06
1.30391e-05
8.85666e-06
1.29162e-05
8.55199e-06
1.3061e-05
1.28657e-05
1.3063e-05
1.30684e-05
8.21589e-06
1.30309e-05
1.31505e-05
1.30274e-05
1.30634e-05
8.64495e-06
8.84651e-06
1.30334e-05
8.83827e-06
1.30606e-05
8.4891e-06
8.42864e-06
8.65825e-06
1.30688e-05
1.30587e-05
1.29792e-05
1.30352e-05
1.30422e-05
1.3034e-05
8.70809e-06
8.5935e-06
1.3e-05
8.7921e-06
8.87317e-06
8.51849e-06
8.3624e-06
1.30374e-05
1.29517e-05
9.09484e-06
1.3176e-05
1.303e-05
1.3035e-05
1.30494e-05
8.59423e-06
1.30323e-05
1.30152e-05
8.95005e-06
1.30554e-05
7.62253e-06
1.30421e-05
1.30475e-05
2.58025e-06
1.29989e-05
1.30103e-05
1.30329e-05
1.30562e-05
1.30362e-05
8.32037e-06
8.53423e-06
1.30053e-05
8.82429e-06
1.30498e-05
1.30467e-05
1.30619e-05
1.30187e-05
1.25257e-05
8.0504e-06
1.29576e-05
1.29676e-05
8.71615e-06
8.42706e-06
8.52346e-06
1.23522e-05
1.30269e-05
1.30461e-05
8.42609e-06
8.42795e-06
1.30638e-05
8.32411e-06
8.22479e-06
8.13774e-06
1.30499e-05
1.30404e-05
1.30511e-05
8.58703e-06
7.69085e-06
5.66777e-06
1.30513e-05
1.29888e-05
1.30295e-05
8.19438e-06
1.30127e-05
8.23282e-06
1.30399e-05
3.77053e-06
3.86803e-06
1.30349e-05
8.12246e-06
8.17359e-06
1.30573e-05
8.25905e-06
8.13885e-06
8.0385e-06
7.87928e-06
1.30357e-05
8.00638e-06
1.32788e-05
8.11393e-06
8.33969e-06
1.29963e-05
1.30443e-05
8.00192e-06
7.96309e-06
8.10381e-06
8.21068e-06
8.0175e-06
9.32062e-06
8.11008e-06
8.17814e-06
7.93327e-06
8.08411e-06
1.30208e-05
7.87919e-06
8.03508e-06
8.07715e-06
8.08702e-06
7.72891e-06
8.31645e-06
7.95232e-06
1.31322e-05
1.30245e-05
1.32743e-05
8.9052e-06
7.78135e-06
7.70401e-06
8.1668e-06
9.15745e-06
7.64569e-06
7.93187e-06
7.75533e-06
7.86e-06
7.81762e-06
7.99372e-06
7.93546e-06
8.01766e-06
8.00861e-06
7.05087e-06
8.22965e-06
7.80686e-06
7.91433e-06
7.59249e-06
3.14258e-06
7.68823e-06
1.2694e-05
7.15996e-06
7.47536e-06
1.30716e-05
7.43036e-06
7.67314e-06
1.3271e-05
7.60051e-06
8.01148e-06
8.6929e-06
7.35783e-06
7.73558e-06
7.87065e-06
7.24239e-06
7.76281e-06
7.65555e-06
7.56308e-06
7.87928e-06
7.52676e-06
7.17217e-06
6.86917e-06
6.97143e-06
1.30418e-05
7.31872e-06
6.73831e-06
7.40093e-06
7.588e-06
7.89284e-06
7.29942e-06
7.49914e-06
7.25883e-06
5.5648e-06
6.78682e-06
6.98972e-06
7.73228e-06
7.30068e-06
7.84912e-06
6.26741e-06
7.26824e-06
6.89201e-06
7.28044e-06
8.13177e-06
7.09914e-06
3.6514e-06
7.21298e-06
6.5626e-06
7.13504e-06
7.11114e-06
7.2913e-06
7.44073e-06
6.68296e-06
6.95801e-06
6.43264e-06
7.15423e-06
6.24381e-06
7.2103e-06
6.55137e-06
7.1186e-06
6.87545e-06
6.15401e-06
6.67305e-06
7.10389e-06
7.0162e-06
6.64018e-06
6.96205e-06
6.96929e-06
6.82251e-06
7.0124e-06
7.19914e-06
7.04549e-06
7.03535e-06
6.73749e-06
6.97059e-06
7.42905e-06
7.00036e-06
6.92787e-06
7.38869e-06
6.87668e-06
6.65707e-06
7.23265e-06
7.01077e-06
6.83291e-06
6.9494e-06
6.80589e-06
6.74315e-06
7.53556e-06
6.63817e-06
7.08205e-06
6.65931e-06
6.72416e-06
7.67626e-06
6.82362e-06
6.76612e-06
6.78098e-06
7.01796e-06
6.84672e-06
6.68426e-06
6.56999e-06
6.608e-06
6.41326e-06
6.62866e-06
6.76872e-06
6.79151e-06
6.85514e-06
7.16731e-06
6.44678e-06
6.40808e-06
7.1266e-06
6.56476e-06
6.4726e-06
6.15834e-06
6.52291e-06
6.34123e-06
6.88115e-06
6.13636e-06
6.48884e-06
6.72225e-06
7.20265e-06
6.55123e-06
6.6441e-06
6.91474e-06
6.27237e-06
6.33817e-06
6.38975e-06
6.52383e-06
6.12475e-06
6.16237e-06
6.25684e-06
7.18607e-06
6.14958e-06
6.20464e-06
6.27899e-06
6.23167e-06
6.39614e-06
6.07056e-06
5.73354e-06
6.02042e-06
6.27412e-06
6.00788e-06
6.0591e-06
6.06965e-06
6.14579e-06
6.69236e-06
6.17163e-06
6.30914e-06
5.53554e-06
6.29164e-06
6.04175e-06
5.93428e-06
5.89609e-06
6.25994e-06
6.12747e-06
1.59096e-06
1.66955e-06
6.12713e-06
5.72772e-06
5.98526e-06
6.03803e-06
5.88149e-06
6.37858e-06
5.93434e-06
5.95856e-06
5.32239e-06
5.8327e-06
5.92638e-06
5.73561e-06
5.77193e-06
6.28567e-06
6.15128e-06
5.98909e-06
5.78226e-06
6.12803e-06
4.87565e-06
5.94968e-06
5.15397e-06
5.91872e-06
5.5983e-06
5.67377e-06
6.15547e-06
5.53328e-06
6.54614e-06
5.04291e-06
5.87274e-06
5.6617e-06
5.7155e-06
5.60566e-06
5.78115e-06
5.79673e-06
5.66618e-06
5.1578e-06
4.9895e-06
5.51095e-06
5.5674e-06
5.7692e-06
5.10019e-06
5.29703e-06
5.38724e-06
5.57288e-06
5.28022e-06
5.45418e-06
5.52878e-06
5.37352e-06
5.22938e-06
5.63897e-06
5.44102e-06
5.417e-06
5.47308e-06
5.56577e-06
5.29194e-06
6.38915e-06
5.85231e-06
5.58161e-06
5.29462e-06
5.31423e-06
5.84403e-06
5.28537e-06
5.34573e-06
5.29849e-06
5.4615e-06
4.72369e-06
5.27836e-06
5.49032e-06
5.21247e-06
5.21531e-06
4.95095e-06
5.23417e-06
4.86573e-06
5.07928e-06
5.62626e-06
4.78474e-06
5.39703e-06
5.07884e-06
4.85708e-06
5.13382e-06
5.21164e-06
5.37442e-06
5.15358e-06
4.96376e-06
5.10149e-06
5.06129e-06
5.28745e-06
5.05466e-06
5.09164e-06
5.23793e-06
4.9805e-06
4.98091e-06
4.94418e-06
4.77527e-06
5.83187e-06
4.38372e-06
5.13731e-06
4.16037e-06
3.96319e-06
5.37115e-06
5.44273e-06
5.08347e-06
3.19939e-06
4.97642e-06
3.971e-06
4.1085e-06
4.39645e-06
4.48986e-06
4.83713e-06
2.86985e-06
4.57268e-06
5.01187e-06
4.71025e-06
3.61636e-06
4.2989e-06
4.57005e-06
4.80752e-06
4.83603e-06
3.06665e-06
5.61623e-06
2.93194e-06
5.00314e-06
4.85948e-06
4.85882e-06
2.75757e-06
5.86414e-06
4.1671e-06
3.86723e-06
4.72305e-06
4.74269e-06
4.85991e-06
4.67355e-06
3.32335e-06
3.33542e-06
4.38155e-06
4.10552e-06
4.60765e-06
4.70164e-06
3.43653e-06
4.47947e-06
4.86061e-06
4.7293e-06
3.7519e-06
4.71379e-06
4.61445e-06
3.19736e-06
4.55492e-06
4.67628e-06
5.16524e-06
4.93714e-06
4.828e-06
4.14219e-06
4.71633e-06
4.58123e-06
4.57721e-06
4.26009e-06
4.61956e-06
3.67052e-06
4.55715e-06
4.53762e-06
4.21952e-06
4.34538e-06
4.52727e-06
3.72265e-06
4.72563e-06
4.51599e-06
4.51806e-06
4.41832e-06
4.77622e-06
4.36616e-06
4.56528e-06
4.4364e-06
4.47583e-06
4.79258e-06
4.38003e-06
4.65547e-06
4.37645e-06
4.50902e-06
4.25416e-06
4.28016e-06
4.28049e-06
4.43543e-06
4.70533e-06
4.84236e-06
3.97683e-06
4.46329e-06
4.25605e-06
4.59301e-06
4.16673e-06
4.29652e-06
4.38138e-06
3.96965e-06
4.6987e-06
4.69814e-06
4.83144e-06
4.20905e-06
4.26841e-06
4.43153e-06
3.81292e-06
4.15439e-06
4.24484e-06
3.44493e-06
4.14894e-06
4.02845e-06
4.15694e-06
4.08655e-06
3.93625e-06
4.28719e-06
4.04904e-06
4.23518e-06
4.05994e-06
4.20363e-06
3.55117e-06
4.29573e-06
2.94702e-06
3.94809e-06
4.95218e-06
4.01406e-06
3.96533e-06
4.45121e-06
3.39334e-06
4.1046e-06
3.80829e-06
3.86414e-06
4.0039e-06
3.86436e-06
3.87376e-06
3.7822e-06
3.85643e-06
3.84265e-06
3.90832e-06
4.01736e-06
3.71633e-06
4.15373e-06
4.36926e-06
3.62879e-06
3.58435e-06
3.02287e-06
3.07509e-06
3.70669e-06
4.00176e-06
5.52388e-06
3.76697e-06
3.57861e-06
3.66269e-06
3.21603e-06
3.84957e-06
3.86117e-06
3.35907e-06
3.55052e-06
3.66231e-06
3.81481e-06
4.06053e-06
3.43574e-06
4.03372e-06
3.55674e-06
3.5214e-06
4.81409e-06
3.30676e-06
3.4825e-06
2.76602e-06
3.30407e-06
3.52986e-06
3.66974e-06
3.44354e-06
3.55043e-06
3.41626e-06
3.16586e-06
3.46136e-06
3.47744e-06
2.83514e-06
3.34822e-06
3.3545e-06
3.3791e-06
3.32309e-06
3.17845e-06
3.77468e-06
3.37758e-06
3.31624e-06
3.27612e-06
2.79323e-06
2.87193e-06
3.30775e-06
2.92524e-06
3.08379e-06
3.15252e-06
3.08085e-06
3.2591e-06
3.474e-06
3.20544e-06
3.13665e-06
3.20053e-06
3.36122e-06
3.17816e-06
3.58278e-06
3.02046e-06
3.29638e-06
3.25234e-06
3.24316e-06
3.36506e-06
3.11073e-06
2.99887e-06
3.18189e-06
3.06925e-06
2.98678e-06
2.99045e-06
2.90062e-06
2.99285e-06
2.90883e-06
2.8614e-06
2.59326e-06
2.25926e-06
2.97139e-06
2.86701e-06
3.31028e-06
2.80082e-06
2.72739e-06
2.82964e-06
3.06123e-06
2.82185e-06
2.97431e-06
2.70685e-06
2.88249e-06
2.75013e-06
2.88647e-06
2.69998e-06
2.44903e-06
2.8097e-06
2.75084e-06
2.88635e-06
2.42654e-06
2.73142e-06
2.63396e-06
2.57334e-06
2.77247e-06
2.59697e-06
2.81101e-06
2.85577e-06
3.24869e-06
2.11011e-06
2.64369e-06
2.62091e-06
2.7448e-06
2.32902e-06
2.29906e-06
1.92003e-06
2.43464e-06
2.47119e-06
2.68075e-06
2.4178e-06
3.69753e-06
2.45981e-06
2.61683e-06
2.48858e-06
2.28157e-06
2.37353e-06
2.59009e-06
2.30491e-06
2.44109e-06
1.98732e-06
2.47991e-06
2.36554e-06
2.14202e-06
2.19745e-06
1.52963e-06
2.13354e-06
2.27231e-06
2.00964e-06
2.24649e-06
2.30402e-06
2.62474e-06
2.11626e-06
1.97919e-06
2.14955e-06
2.40789e-06
2.25888e-06
2.34889e-06
2.692e-06
2.13696e-06
1.85125e-06
2.71202e-06
2.19693e-06
1.96404e-06
2.17145e-06
2.22304e-06
2.02484e-06
1.68136e-06
2.1414e-06
2.13225e-06
1.94084e-06
1.15823e-06
1.99087e-06
1.31216e-06
1.79972e-06
1.99486e-06
1.52888e-06
1.83619e-06
2.31316e-06
2.10461e-06
2.04007e-06
1.87211e-06
2.0043e-06
2.39088e-06
1.8876e-06
1.87065e-06
8.6087e-06
5.56907e-06
1.86137e-06
1.72541e-06
4.67044e-06
1.97986e-06
1.7064e-06
1.7661e-06
5.6259e-06
7.78968e-06
1.74849e-06
9.65092e-06
7.70339e-06
1.26622e-06
1.64988e-06
9.08939e-06
1.75237e-06
1.39814e-06
1.41212e-06
1.705e-06
1.30484e-06
7.75829e-06
1.62703e-06
1.57718e-06
1.63886e-06
5.76469e-06
1.56751e-06
6.77522e-06
2.5674e-06
6.31234e-06
7.69832e-06
8.93828e-07
9.75672e-06
2.4312e-06
1.54002e-06
9.17368e-06
7.37893e-06
1.11977e-06
6.36498e-06
3.91822e-06
1.34649e-06
1.11059e-06
1.70726e-06
1.91003e-06
1.51756e-06
9.97055e-06
8.35532e-06
2.27036e-06
7.54493e-06
6.29843e-06
6.17403e-07
9.40735e-07
8.75831e-06
1.63318e-06
6.16789e-06
1.85558e-06
6.03229e-06
1.02403e-06
1.75541e-06
4.80795e-06
5.89944e-06
1.62171e-06
4.67957e-06
1.43798e-06
2.31842e-06
6.43205e-06
1.04747e-06
1.16095e-06
1.84355e-06
6.98057e-07
4.83146e-06
1.85129e-06
8.01153e-06
1.00638e-05
8.48906e-07
6.69808e-07
5.826e-06
9.11653e-06
1.94184e-06
1.62999e-06
1.22749e-06
8.48943e-06
9.8455e-06
6.75063e-06
9.09022e-06
8.52486e-06
7.78799e-06
2.20199e-06
1.27011e-06
2.23498e-06
1.22767e-06
9.22292e-06
8.75436e-06
8.69996e-06
7.22605e-06
7.8899e-06
2.74482e-06
7.87035e-06
1.3087e-06
3.71339e-06
4.52166e-06
8.34096e-06
1.2653e-06
1.22882e-06
2.01984e-06
1.56367e-06
4.52917e-06
1.15347e-06
1.63054e-06
1.36522e-06
6.59934e-06
2.55616e-06
1.37587e-06
2.45566e-06
1.62843e-06
1.84878e-06
1.45074e-06
2.38547e-06
1.86267e-06
1.83969e-06
1.69544e-06
1.50472e-06
1.68602e-06
1.4382e-06
6.44662e-06
6.30439e-06
1.7669e-06
1.72787e-06
1.70556e-06
3.13418e-06
2.728e-06
1.78345e-06
1.99309e-06
2.06284e-06
2.09579e-06
2.47464e-06
4.06847e-06
2.87681e-06
3.22818e-06
2.54927e-06
2.46173e-06
2.6254e-06
2.67901e-06
2.48393e-06
2.99043e-06
2.88238e-06
2.81264e-06
2.53613e-06
2.86184e-06
2.93346e-06
2.73563e-06
3.59995e-06
2.68767e-06
3.06887e-06
3.73707e-06
3.11574e-06
4.00287e-06
3.9217e-06
3.02288e-06
3.12405e-06
3.51501e-06
3.77732e-06
3.43478e-06
3.75383e-06
2.9908e-06
3.81469e-06
3.63862e-06
3.85984e-06
3.69393e-06
4.55343e-06
5.26087e-06
4.38923e-06
4.31871e-06
4.58565e-06
4.99149e-06
5.09745e-06
5.65143e-06
4.59427e-06
4.9897e-06
4.5169e-06
5.12793e-06
4.92248e-06
4.64954e-06
5.01233e-06
5.15751e-06
5.38813e-06
5.39684e-06
4.98972e-06
5.15121e-06
5.53535e-06
5.74428e-06
5.06789e-06
5.67732e-06
5.02234e-06
4.92877e-06
5.82756e-06
5.64189e-06
4.9736e-06
5.55239e-06
5.50693e-06
5.59126e-06
5.18158e-06
5.24084e-06
5.22533e-06
5.19625e-06
6.14939e-06
5.8455e-06
6.21245e-06
5.96514e-06
4.68828e-06
4.68776e-06
5.87248e-06
6.07478e-06
5.87055e-06
6.48311e-06
6.00048e-06
5.74362e-06
6.43633e-06
6.40948e-06
6.65806e-06
6.44292e-06
6.042e-06
6.41012e-06
6.3498e-06
6.30385e-06
6.89134e-06
6.33998e-06
6.06727e-06
6.4175e-06
6.3067e-06
6.42082e-06
7.36135e-06
6.28231e-06
7.37944e-06
6.88201e-06
7.71066e-06
7.83632e-06
6.1709e-06
7.01471e-06
6.9048e-06
7.04725e-06
6.20029e-06
6.41749e-06
6.67735e-06
7.10406e-06
1.33712e-05
7.81531e-06
7.17602e-06
1.30075e-05
6.32251e-06
6.05744e-06
1.33832e-05
7.17182e-06
7.54445e-06
6.53474e-06
1.30933e-05
7.19047e-06
1.32967e-05
7.29127e-06
5.95578e-06
1.30778e-05
7.27076e-06
7.25755e-06
6.81275e-06
1.33121e-05
6.5433e-06
1.90606e-06
7.03968e-06
7.0844e-06
7.0691e-06
7.04487e-06
1.77612e-06
1.94018e-06
6.81199e-06
7.4458e-06
7.50505e-06
8.29288e-06
7.80903e-06
7.39917e-06
2.06789e-06
8.40348e-06
1.30578e-05
7.78862e-06
7.96065e-06
8.02927e-06
8.05258e-06
1.30119e-05
1.27937e-05
1.85178e-06
7.60668e-06
1.3109e-05
7.31183e-06
8.88922e-06
7.51894e-06
8.76323e-06
1.31639e-05
1.30603e-05
1.23047e-05
1.30498e-05
1.58018e-06
1.82976e-06
1.3166e-05
8.80926e-06
1.30493e-05
8.40706e-06
8.56733e-06
8.23541e-06
1.71605e-06
1.42326e-06
1.29955e-05
1.30362e-05
8.71588e-06
1.30619e-05
1.30276e-05
1.26624e-06
8.17108e-06
8.8201e-06
1.30443e-05
1.30486e-05
1.30024e-05
9.49634e-06
1.31662e-05
8.86949e-06
1.30555e-05
1.26698e-05
1.30482e-05
8.32153e-06
1.31779e-05
1.44047e-06
1.31254e-05
1.31455e-05
1.30521e-05
1.30614e-05
8.71317e-06
1.30321e-05
1.3016e-05
1.30704e-05
1.31728e-05
1.31269e-05
8.77289e-06
1.30218e-05
1.30575e-05
1.31011e-05
1.30381e-05
1.30153e-05
1.30556e-05
8.59475e-06
9.01147e-06
1.3153e-05
1.30658e-05
9.3606e-06
1.30352e-05
8.69374e-06
9.62531e-06
1.30349e-05
1.30668e-05
1.31373e-05
1.31317e-05
1.30382e-05
1.30213e-05
8.91296e-06
2.12878e-06
8.54237e-06
1.29721e-05
1.31171e-05
1.30189e-05
1.30279e-05
1.30326e-05
1.29523e-05
9.36454e-07
1.30611e-05
5.62391e-06
1.30702e-05
1.31066e-05
8.99722e-06
1.30288e-05
1.31505e-05
8.46718e-06
1.31292e-05
1.30614e-05
1.30654e-05
1.2705e-05
1.30266e-05
1.30313e-05
1.22664e-05
1.31556e-05
1.30241e-05
1.30582e-05
1.30211e-05
1.30273e-05
1.30268e-05
1.30376e-05
1.30231e-05
1.30394e-05
1.30295e-05
1.43342e-06
1.30431e-05
1.31804e-05
1.30623e-05
1.30303e-05
1.30065e-05
1.31267e-05
1.30218e-05
1.30626e-05
1.31043e-05
1.30138e-05
1.29829e-05
1.30317e-05
1.45813e-06
1.30826e-05
1.30615e-05
1.30544e-05
1.56128e-06
1.46067e-06
1.2849e-05
1.30245e-05
8.80899e-06
1.30644e-05
1.30648e-05
1.30594e-05
1.29748e-05
1.30452e-05
1.30599e-05
9.13274e-06
1.30607e-05
1.30861e-05
9.86047e-06
1.3037e-05
1.3031e-05
1.30587e-05
1.30947e-05
1.30558e-05
1.30668e-05
1.30019e-05
1.30608e-05
1.30265e-05
1.30449e-05
1.30351e-05
1.30091e-05
1.29961e-05
2.23316e-06
1.30247e-05
1.30654e-05
1.30337e-05
9.55664e-06
1.30491e-05
1.30558e-05
1.30324e-05
1.30813e-05
1.30335e-05
1.30529e-05
1.30773e-05
1.3038e-05
1.29519e-05
1.3087e-05
1.30524e-05
1.28936e-05
1.30367e-05
1.3023e-05
1.30575e-05
1.30398e-05
1.30609e-05
9.28113e-06
1.30618e-05
1.30382e-05
1.30433e-05
1.30314e-05
1.31306e-05
1.30412e-05
9.37569e-06
1.30508e-05
1.30648e-05
1.3034e-05
1.30348e-05
1.30565e-05
1.30423e-05
1.30455e-05
1.3039e-05
1.301e-05
1.30613e-05
1.29395e-05
1.3082e-05
1.30553e-05
1.30382e-05
1.30478e-05
1.30539e-05
1.3041e-05
1.30419e-05
1.30285e-05
1.30525e-05
9.17571e-06
1.31733e-05
1.28921e-05
9.7366e-06
1.30261e-05
1.30632e-05
1.28159e-05
1.30591e-05
8.75278e-06
1.30451e-05
1.30405e-05
1.3043e-05
1.30451e-05
1.30558e-05
1.30553e-05
1.30547e-05
1.30577e-05
1.30594e-05
2.63883e-06
1.28756e-05
1.30636e-05
1.30495e-05
1.30571e-05
1.30359e-05
1.30354e-05
1.30505e-05
1.30741e-05
1.30596e-05
1.30583e-05
1.30547e-05
1.305e-05
1.30584e-05
1.30507e-05
3.99736e-06
1.29834e-05
1.30555e-05
1.30585e-05
1.30147e-05
1.3035e-05
1.30164e-05
1.30508e-05
1.30546e-05
1.30803e-05
1.29781e-05
1.30451e-05
1.30487e-05
1.3049e-05
1.30615e-05
1.30608e-05
9.44124e-06
1.30564e-05
1.30252e-05
1.30489e-05
1.30069e-05
5.9047e-06
1.28121e-05
1.30316e-05
1.30415e-05
1.30561e-05
1.28402e-05
1.3039e-05
1.30352e-05
1.30734e-05
1.30322e-05
1.30319e-05
1.30536e-05
7.36961e-06
1.30444e-05
2.81571e-06
1.30757e-05
1.30389e-05
1.30415e-05
1.30352e-05
1.30371e-05
1.30465e-05
1.30402e-05
1.30083e-05
9.65478e-06
1.30358e-05
8.90319e-06
1.28658e-05
1.30523e-05
3.3673e-06
1.30118e-05
1.29495e-05
1.29651e-05
4.24762e-06
1.3049e-05
1.30473e-05
1.30304e-05
1.01967e-05
1.30423e-05
8.0759e-06
1.31128e-05
1.30554e-05
6.1519e-06
1.30391e-05
1.31091e-05
1.29835e-05
1.30669e-05
1.30509e-05
1.2947e-05
1.30058e-05
1.31115e-05
1.3047e-05
1.24295e-05
1.32931e-06
1.30162e-05
1.3042e-05
1.30463e-05
1.30022e-05
1.30533e-05
1.30578e-05
1.30482e-05
1.31245e-05
1.2662e-05
1.30525e-05
1.30546e-05
1.30359e-05
6.5557e-07
1.30439e-05
1.30355e-05
1.30513e-05
1.29319e-05
1.311e-05
1.30659e-05
1.30494e-05
1.30063e-05
1.30538e-05
1.29198e-05
1.30533e-05
7.44931e-06
1.31356e-05
1.30554e-05
1.3092e-05
1.19917e-06
1.31238e-05
1.30509e-05
1.30564e-05
3.66452e-06
1.30373e-05
1.30975e-05
1.3042e-05
1.30437e-05
1.25262e-05
1.30061e-05
1.21836e-05
1.30661e-05
1.30439e-05
1.3051e-05
8.47919e-06
1.30157e-05
1.30722e-05
1.30557e-05
1.30384e-05
1.29876e-05
1.30387e-05
1.30348e-05
1.3822e-06
1.31037e-05
1.24552e-05
1.29749e-05
1.30535e-05
8.63713e-06
1.29708e-05
1.30598e-05
1.30398e-05
2.50406e-06
1.28656e-05
1.30709e-05
1.29925e-05
6.05885e-06
1.30324e-05
1.3057e-05
8.85198e-06
1.30491e-05
1.2973e-05
6.27338e-06
1.31087e-05
1.00424e-05
1.3054e-05
1.30529e-05
1.30726e-05
1.30818e-05
1.30035e-05
6.05883e-06
1.30786e-05
1.30305e-05
1.30523e-05
9.01505e-07
1.30519e-05
1.30543e-05
1.3101e-05
1.28238e-05
6.04221e-06
9.42196e-06
9.27705e-06
1.30587e-05
1.30213e-05
1.30397e-05
1.19455e-05
1.30708e-05
1.27821e-05
1.30469e-05
1.29907e-05
1.30186e-05
1.30014e-05
5.49193e-07
1.30919e-05
1.21024e-06
1.30557e-05
1.3004e-05
1.28228e-05
1.30474e-05
1.29589e-05
1.3069e-05
1.29564e-05
1.24484e-05
1.30383e-05
9.33064e-06
1.29624e-05
1.31183e-05
1.30528e-05
1.29503e-05
2.94027e-06
1.0096e-07
1.30132e-05
1.29792e-05
1.29543e-05
1.29911e-05
1.30475e-05
1.30173e-05
1.30811e-05
1.25189e-05
1.29974e-05
4.32128e-06
1.30643e-05
1.29923e-05
1.30524e-05
1.29391e-05
1.29911e-05
1.01492e-05
1.30757e-05
1.3031e-05
1.30687e-05
1.3028e-05
1.28366e-05
1.29743e-05
1.3271e-05
1.27647e-05
1.30628e-05
1.30085e-05
8.19035e-06
1.30468e-05
1.29706e-05
1.29569e-05
1.3002e-05
1.29895e-05
1.30361e-05
3.13005e-06
1.30483e-05
9.85268e-07
1.29763e-05
1.29715e-05
1.29484e-05
1.29906e-05
1.30475e-05
1.27785e-06
1.29717e-05
1.30417e-05
1.29728e-05
1.29021e-05
7.88921e-06
1.30367e-05
9.15954e-06
7.74371e-06
1.30293e-05
1.29326e-05
1.30734e-05
5.45397e-06
1.30686e-05
1.95516e-06
5.74357e-06
1.30626e-05
1.30803e-05
1.23527e-05
1.23704e-05
1.01527e-05
1.3037e-05
1.26264e-05
1.30336e-05
1.29625e-05
1.28054e-05
1.30294e-05
1.30671e-05
1.29171e-05
1.91211e-06
1.30076e-05
1.30321e-05
1.2999e-05
1.29812e-05
1.24e-06
6.17195e-06
1.30298e-05
1.27577e-05
2.27602e-06
6.19001e-06
1.3076e-05
1.45177e-06
9.96687e-06
1.29442e-05
1.29784e-05
1.71517e-06
9.08147e-06
1.29875e-05
1.30612e-05
1.04438e-05
1.30568e-05
1.25889e-06
1.30411e-05
9.00144e-06
1.30065e-05
1.26272e-05
1.35709e-06
1.30343e-05
1.26069e-05
1.29897e-05
1.30313e-05
1.30102e-05
1.29401e-05
1.30584e-05
6.02055e-06
3.02837e-06
5.90035e-06
7.91437e-06
2.84282e-06
1.29293e-05
1.2804e-05
1.37008e-06
2.57085e-06
1.28447e-05
1.27762e-05
8.19653e-07
7.56718e-06
1.30262e-05
1.29833e-05
1.26977e-05
1.29939e-05
3.06872e-06