/*--------------------------------*- C++ -*----------------------------------*\
  =========                 |
  \\      /  F ield         | OpenFOAM: The Open Source CFD Toolbox
   \\    /   O peration     | Website:  https://openfoam.org
    \\  /    A nd           | Version:  8
     \\/     M anipulation  |
\*---------------------------------------------------------------------------*/
FoamFile
{
    version     2.0;
    format      ascii;
    class       volScalarField;
    location    "4.2";
    object      p;
}
// * * * * * * * * * * * * * * * * * * * * * * * * * * * * * * * * * * * * * //

dimensions      [0 2 -2 0 0 0 0];

internalField   nonuniform List<scalar> 
5490
(
6.12598e-06
6.57231e-06
5.18714e-06
6.23999e-06
9.80586e-07
1.09619e-05
1.1394e-05
1.13564e-05
4.33321e-06
1.13313e-05
4.82455e-06
4.64038e-06
3.74695e-06
4.31733e-06
4.20668e-06
1.13476e-05
1.13969e-05
1.1054e-05
6.13677e-06
4.45977e-06
3.3253e-06
1.13944e-05
1.11066e-05
1.13942e-05
3.21887e-06
3.39897e-06
3.8619e-06
6.01292e-06
1.0743e-05
2.16588e-06
5.78083e-06
1.13833e-05
8.87947e-06
7.60121e-06
2.6241e-06
5.75323e-06
1.06666e-05
6.12015e-06
1.42381e-06
3.00224e-06
5.91887e-06
1.06948e-05
5.06666e-06
1.07305e-05
1.13422e-05
7.6306e-06
2.04232e-06
1.54615e-06
6.13446e-06
9.75877e-06
1.13137e-05
2.28555e-06
2.73397e-06
1.19404e-06
3.63263e-06
7.61272e-06
1.02968e-05
1.16167e-05
4.30684e-06
2.26388e-06
1.07207e-05
4.96441e-07
7.21346e-06
1.13676e-05
1.13952e-05
1.12208e-05
1.13272e-05
1.0641e-05
1.84241e-06
1.13525e-05
1.44507e-06
3.09169e-06
1.13369e-05
1.13717e-05
1.12972e-05
2.68866e-06
1.09995e-05
4.63481e-07
6.46622e-06
5.14832e-06
1.07111e-05
9.8988e-06
1.08821e-05
6.2519e-06
9.65504e-07
7.03808e-06
1.10293e-05
1.09775e-05
2.86789e-06
1.06483e-05
1.13542e-05
1.09012e-05
1.25679e-06
1.14002e-05
5.92602e-06
1.13542e-05
4.53537e-06
1.08688e-05
1.07065e-05
3.595e-06
4.44873e-06
2.77895e-06
7.80052e-06
1.13681e-05
7.75964e-06
7.39351e-06
2.75118e-06
1.05005e-05
1.13772e-05
1.13853e-05
1.13742e-05
1.13613e-05
1.1248e-05
7.69665e-06
5.36698e-06
1.07018e-05
6.4782e-06
1.12219e-05
1.11702e-05
2.3706e-06
7.85121e-06
8.89991e-06
1.08125e-05
6.36509e-06
1.13541e-05
1.12899e-05
4.22065e-06
6.97717e-07
1.13776e-05
4.08354e-06
1.12859e-05
1.06667e-05
3.44176e-06
5.04756e-06
1.67322e-06
1.13802e-05
1.1598e-05
1.1335e-05
1.13088e-05
7.5332e-06
1.13685e-05
1.14064e-05
3.20701e-06
1.05841e-05
1.13692e-05
1.13513e-05
8.12105e-09
1.13582e-05
2.45025e-06
1.08226e-05
1.13863e-05
1.1383e-05
4.56197e-06
1.14083e-05
1.0544e-05
1.13981e-05
1.13872e-05
1.12557e-05
1.13524e-05
4.14947e-06
5.36604e-06
1.03115e-05
1.05488e-05
1.12478e-05
1.13646e-05
1.11472e-05
1.13788e-05
4.13673e-07
1.09331e-05
2.35255e-07
1.15858e-05
7.93512e-07
3.41166e-06
1.13833e-05
4.65307e-06
1.98087e-06
2.56719e-06
1.14071e-05
3.30671e-06
4.11262e-06
1.13171e-05
1.13773e-05
6.50476e-06
6.00082e-06
1.13989e-05
1.71309e-06
2.4048e-06
1.11359e-06
1.13836e-05
1.13387e-05
1.1607e-05
1.58645e-06
6.37003e-06
1.13828e-05
1.13096e-05
5.48288e-06
7.62838e-06
1.13995e-05
1.08624e-05
2.40151e-06
1.12723e-05
7.4335e-06
1.14017e-05
1.1373e-05
9.56285e-06
1.18103e-05
1.1379e-05
1.12531e-05
4.99904e-06
1.08576e-05
1.14312e-05
1.13879e-05
5.90134e-06
5.65718e-06
5.3054e-06
7.63697e-06
5.28593e-06
4.95066e-06
1.16075e-05
1.13979e-05
1.10921e-05
1.13814e-05
1.0122e-05
3.52117e-06
3.38249e-06
8.9056e-07
2.65608e-06
2.64411e-06
1.32059e-06
1.13963e-05
1.1735e-06
1.066e-05
1.13837e-05
1.13245e-05
7.38357e-06
1.04568e-05
1.1286e-05
1.13847e-05
1.14022e-05
3.97634e-06
1.14004e-05
5.48496e-06
2.71675e-07
2.28849e-06
1.14055e-05
1.10997e-05
1.07754e-05
8.55087e-06
1.0612e-05
1.1376e-05
1.14011e-05
9.19733e-06
1.13436e-05
1.06558e-05
2.15215e-06
7.48557e-06
8.697e-06
2.79214e-06
4.5763e-06
1.12752e-05
1.06412e-05
6.34757e-06
6.47837e-06
1.1588e-05
1.13811e-05
1.09697e-05
7.82862e-06
1.06008e-05
1.13862e-05
1.13487e-05
1.13763e-05
5.30095e-06
1.13857e-05
1.12173e-05
9.15816e-06
1.13816e-05
1.13654e-05
1.37066e-06
5.97983e-06
7.81401e-06
1.13997e-05
1.13833e-05
1.14027e-05
1.05213e-05
4.73868e-06
1.13406e-05
1.05112e-05
1.13813e-05
1.03215e-05
4.40706e-06
9.06912e-07
1.06688e-05
1.09296e-05
7.92757e-06
4.12975e-06
1.10149e-05
1.13442e-05
1.13816e-05
9.47085e-07
1.07756e-05
6.73125e-06
1.12802e-05
6.20931e-06
1.08442e-05
3.75992e-06
1.29807e-06
1.16022e-05
1.13324e-05
6.84194e-06
1.54778e-06
3.31288e-06
1.10832e-05
1.08307e-05
7.23242e-06
4.55284e-06
7.57046e-06
1.67171e-07
1.1342e-05
9.76062e-06
1.14059e-05
1.13585e-05
2.574e-06
3.96329e-06
1.13287e-05
1.1314e-05
1.45896e-06
7.47131e-07
3.81092e-06
1.10635e-05
5.89688e-06
7.34555e-06
1.13791e-05
1.13829e-05
1.0503e-05
5.62403e-06
1.95714e-06
1.14056e-05
4.41448e-06
1.14042e-05
1.1241e-05
1.14437e-05
1.13449e-05
6.67075e-06
7.36953e-06
4.66516e-06
1.3125e-06
1.37298e-06
1.13871e-05
6.70536e-06
1.11884e-06
1.14085e-05
6.92613e-06
2.52314e-06
2.63083e-06
4.26828e-06
1.13793e-05
4.94933e-06
7.98707e-06
1.14105e-05
6.23242e-06
6.80952e-06
3.83819e-06
1.13687e-05
1.11534e-06
1.59114e-06
6.59082e-07
1.03673e-06
1.13521e-05
1.13779e-05
7.57994e-06
1.38361e-06
2.53269e-06
2.50264e-06
1.1379e-05
1.00546e-05
1.13794e-05
1.14075e-05
3.46649e-06
1.13378e-05
1.08494e-05
1.38022e-06
2.62083e-06
7.19145e-06
7.59799e-06
8.98653e-06
3.91929e-06
4.61777e-06
3.08141e-06
3.53941e-06
1.13816e-05
1.06046e-05
4.06939e-06
1.13563e-05
7.12617e-07
3.34262e-06
3.33143e-06
3.33895e-06
1.13775e-05
1.71382e-06
2.5405e-06
1.13649e-05
1.01001e-05
9.74617e-07
1.09813e-05
3.83102e-06
1.1386e-05
1.14027e-05
1.13821e-05
1.13705e-05
2.25925e-06
7.98749e-06
1.13995e-05
6.24498e-06
9.73958e-06
4.90315e-06
3.34127e-06
2.72156e-06
1.13936e-05
1.14048e-05
7.15564e-06
2.41754e-06
7.43829e-06
8.39481e-06
4.3864e-06
1.06054e-05
1.11149e-05
4.20086e-06
1.13778e-05
1.24309e-06
1.13869e-05
4.7806e-06
4.77586e-06
4.77129e-06
4.76434e-07
1.11228e-05
1.13836e-05
1.12943e-05
1.05673e-05
3.57686e-06
1.49331e-06
8.05604e-06
5.73666e-06
1.34641e-06
1.09528e-05
6.32052e-06
1.13371e-05
7.5792e-06
1.13729e-05
1.13864e-05
1.09552e-05
5.61558e-06
1.12653e-05
4.77985e-06
4.1463e-06
5.61022e-06
5.60871e-06
1.13692e-05
1.13818e-05
6.49934e-06
6.2222e-06
6.46764e-06
1.29974e-06
7.4615e-06
8.31327e-06
1.1121e-05
7.66093e-06
5.49204e-06
1.10777e-05
7.05479e-06
9.57005e-06
7.75668e-06
5.61142e-06
5.00091e-06
4.48756e-06
9.66228e-08
1.07861e-05
1.09773e-05
7.94048e-06
8.01922e-06
1.13717e-05
1.13695e-05
7.62763e-06
6.95663e-06
1.09771e-07
5.84644e-06
1.30511e-06
1.14585e-05
7.62363e-06
6.24923e-06
2.93157e-07
3.9888e-06
7.08066e-07
6.62421e-06
1.13468e-05
1.0678e-05
1.13719e-05
1.13458e-05
1.13858e-05
1.54452e-06
1.07738e-06
1.4674e-06
1.45211e-06
1.13876e-05
1.13839e-05
1.12315e-05
6.56934e-06
2.87453e-06
6.98649e-06
1.03861e-05
1.08627e-05
1.11216e-05
1.07219e-05
1.1373e-05
1.136e-05
1.13723e-05
1.13867e-05
1.06827e-05
1.28071e-06
6.73026e-06
1.11107e-05
1.09586e-05
1.13762e-05
1.0631e-05
1.06435e-05
1.1387e-05
1.1349e-05
1.73281e-06
1.11004e-05
1.13493e-05
6.87645e-07
1.14003e-05
1.67092e-06
1.15831e-05
1.15633e-05
7.28187e-06
9.51249e-06
1.13787e-05
1.06506e-05
1.13941e-05
3.90123e-06
1.12694e-05
1.06627e-05
1.12405e-05
9.87532e-06
1.13685e-05
1.1349e-05
1.04795e-05
1.05087e-05
1.11945e-05
1.1387e-05
5.91525e-06
9.00446e-06
6.72164e-07
1.1203e-05
1.13535e-05
1.82631e-06
1.10229e-05
1.13498e-05
5.99332e-07
1.13705e-05
1.14085e-05
1.13709e-05
1.13864e-05
1.13117e-05
1.04156e-05
8.73438e-06
1.11055e-05
8.49234e-06
1.8242e-06
1.1292e-05
5.76771e-07
1.04658e-05
1.1389e-05
1.12698e-05
1.1384e-05
1.14017e-05
1.10626e-05
8.10508e-06
9.90176e-06
2.2471e-06
1.13852e-05
1.07291e-05
1.06741e-05
1.39371e-06
7.97054e-06
1.05572e-06
1.01038e-05
1.13718e-05
1.13271e-05
1.13755e-05
1.09933e-05
1.12361e-05
1.13847e-05
1.09917e-05
1.13728e-05
1.13576e-05
1.1263e-05
1.14066e-05
1.13613e-05
1.13412e-05
1.21332e-06
2.82333e-06
1.09113e-05
1.14062e-05
6.02108e-06
1.43158e-06
4.59309e-06
1.1112e-05
1.61438e-06
7.59448e-06
1.13681e-05
1.13538e-05
1.05483e-05
4.78351e-06
5.54945e-06
1.42382e-06
1.12594e-05
1.06797e-05
1.13806e-05
8.61101e-06
1.15561e-05
1.49616e-06
1.37971e-06
2.32496e-06
1.97811e-07
1.13799e-05
1.13481e-05
5.62254e-06
1.1106e-05
1.03703e-05
1.13685e-05
1.05806e-05
1.12668e-05
9.57455e-06
1.07404e-05
2.13739e-06
8.40417e-06
1.61175e-06
1.0586e-05
1.1482e-05
1.1494e-05
1.07286e-05
1.13854e-05
1.13731e-05
1.0839e-05
1.16665e-06
8.1508e-06
1.14585e-05
1.1068e-05
3.16913e-06
9.29325e-06
1.08966e-05
7.78613e-06
1.14073e-05
1.13144e-05
1.10126e-05
1.13873e-05
1.10084e-05
1.05739e-05
1.05386e-05
1.06679e-05
8.10102e-06
1.04614e-05
1.137e-05
2.03655e-06
1.15726e-05
6.76738e-06
9.17611e-06
1.07147e-05
1.12121e-05
1.13489e-05
1.15455e-05
1.0883e-05
1.12424e-05
1.09867e-05
1.05559e-05
1.10761e-05
4.62712e-06
1.09282e-05
1.06991e-05
1.13498e-05
1.05026e-05
7.40757e-06
8.04209e-06
7.64583e-06
1.1538e-05
1.13724e-05
1.13042e-05
1.13843e-05
1.59253e-06
1.05806e-05
1.13873e-05
3.95011e-06
7.90182e-06
1.13232e-05
1.13606e-05
1.06334e-05
1.13808e-05
8.48743e-06
1.05018e-05
1.06991e-05
3.54049e-06
8.49621e-06
1.06395e-05
5.45532e-06
1.13788e-05
1.09971e-05
1.06352e-05
1.06705e-05
8.23496e-06
1.08652e-05
1.06705e-05
1.09467e-05
1.14486e-05
1.13798e-05
1.13564e-05
1.13826e-05
8.49542e-06
8.35523e-06
1.05749e-05
1.13385e-05
8.02208e-06
4.32279e-06
1.12386e-05
1.83944e-06
1.09732e-05
1.13841e-05
7.60821e-06
7.72157e-06
7.57067e-06
1.13583e-05
1.04536e-05
1.04046e-05
1.06614e-05
1.08008e-05
1.13664e-05
1.10243e-05
1.0672e-05
7.50156e-06
1.13851e-05
1.06869e-05
9.4707e-06
6.34492e-06
9.81604e-06
4.46043e-06
1.1223e-05
1.07644e-05
1.13848e-05
1.06654e-05
1.1568e-05
1.11077e-05
8.59556e-07
1.11287e-05
1.13496e-05
1.12693e-05
8.13962e-06
1.1062e-05
1.13836e-05
1.06512e-05
1.06017e-05
1.09546e-05
1.13731e-05
8.20145e-06
1.13774e-05
3.71001e-06
1.13874e-05
1.13603e-05
8.26818e-06
4.20086e-06
4.66596e-06
1.14177e-05
8.06182e-06
1.08713e-05
8.40603e-06
1.09915e-05
1.08017e-05
1.12363e-05
1.49917e-06
1.08916e-05
1.13866e-05
4.31563e-06
1.11105e-05
9.57134e-06
1.07006e-05
7.1135e-06
8.30262e-06
1.05644e-05
1.1385e-05
1.13618e-05
1.09218e-05
1.10726e-05
1.12145e-05
8.33102e-06
7.43831e-06
1.06845e-05
1.09117e-05
6.43195e-06
1.10357e-05
1.13634e-05
1.12491e-05
5.59576e-07
1.08659e-05
1.09113e-05
7.10512e-06
1.11361e-05
1.13666e-05
1.13925e-05
1.09663e-05
7.47599e-06
1.1324e-05
1.10877e-05
1.13256e-05
8.29456e-06
1.13359e-05
8.78013e-06
1.09804e-05
1.09462e-05
1.13827e-05
2.97352e-06
8.0874e-06
6.89731e-07
4.68784e-06
1.10974e-05
7.42207e-06
1.13356e-05
1.05219e-05
4.52292e-06
1.97232e-06
1.15736e-05
1.11032e-05
1.1393e-05
1.11796e-05
4.06051e-06
8.52862e-06
9.35968e-06
1.13926e-05
1.13891e-05
1.10529e-05
1.15043e-05
1.13643e-05
3.23555e-06
1.09942e-05
2.74824e-06
8.92488e-06
1.07275e-05
8.33005e-06
1.06668e-05
1.13772e-05
1.106e-05
1.04459e-05
2.54737e-06
2.50028e-06
1.09033e-05
1.10473e-05
1.13088e-05
1.13725e-05
1.12555e-05
1.13694e-05
1.12246e-05
8.00501e-06
1.14303e-05
1.13826e-05
1.91701e-06
3.58994e-06
1.08257e-05
1.10094e-05
9.88046e-07
1.13933e-05
1.12686e-05
7.41337e-06
1.13465e-05
9.18317e-06
1.08859e-05
9.35269e-06
1.12358e-05
1.13648e-05
3.82752e-06
8.77547e-06
1.09554e-05
4.18597e-06
1.11918e-05
9.79787e-06
8.19972e-06
8.44103e-06
1.12745e-05
1.12565e-05
1.06077e-05
1.12118e-05
1.11189e-05
7.6207e-06
1.13869e-05
1.13762e-05
1.08975e-05
1.05577e-06
5.02731e-06
7.35933e-06
7.2915e-07
1.11488e-05
1.1347e-05
8.7926e-06
8.50189e-06
1.10163e-05
1.03684e-05
1.12525e-05
1.13349e-05
1.09168e-05
1.11158e-05
9.07098e-06
1.34285e-06
1.13665e-05
7.85225e-06
1.13699e-05
7.87692e-06
7.9375e-06
1.12972e-05
1.11104e-05
1.11018e-05
1.14042e-05
1.10593e-05
1.13766e-05
1.12749e-05
1.12719e-05
1.07083e-05
8.36167e-07
1.1363e-05
1.15122e-05
1.13818e-05
1.00115e-05
1.14427e-05
7.49046e-06
7.28834e-06
1.13238e-05
1.1051e-05
1.11443e-05
1.10815e-05
1.13041e-05
9.39317e-06
1.1354e-05
1.14282e-05
1.13681e-05
1.13659e-05
1.12836e-05
1.13658e-05
1.08938e-05
1.13257e-05
1.15075e-05
1.13278e-05
8.77569e-06
8.0645e-06
1.12406e-05
1.1577e-05
1.13928e-05
1.12827e-05
1.13629e-05
1.13637e-05
1.12395e-05
1.15509e-05
1.14022e-05
8.67557e-06
1.13834e-05
8.38718e-06
1.13452e-05
1.14041e-05
1.12285e-05
1.12962e-05
1.07599e-05
1.14282e-05
8.20351e-06
1.11435e-05
1.09595e-05
1.1263e-05
1.06271e-05
1.14951e-05
1.1472e-05
1.13433e-05
8.23886e-06
8.54804e-06
1.09499e-05
1.07828e-05
1.13916e-05
1.11053e-05
9.14302e-06
7.79657e-06
1.12853e-05
1.13324e-05
1.7023e-06
9.84294e-06
1.12435e-05
1.13602e-05
8.92012e-06
1.11598e-05
7.88828e-06
1.1354e-05
1.13558e-05
1.13607e-05
8.13479e-06
1.13919e-05
1.13656e-05
1.13612e-05
1.11605e-05
8.13679e-06
1.1254e-05
1.13576e-05
6.86585e-07
8.50821e-06
2.61517e-06
1.13953e-05
1.13996e-05
1.13644e-05
1.13646e-05
1.13148e-05
1.13698e-05
1.07159e-05
1.0958e-05
1.1353e-05
1.12037e-05
7.93111e-06
1.10966e-05
1.12069e-05
1.13642e-05
1.11891e-06
1.13433e-05
1.13587e-05
1.1344e-05
1.15078e-05
1.12485e-05
1.13677e-05
1.12756e-05
1.84099e-06
1.13644e-05
1.17051e-05
1.13465e-05
1.13846e-05
1.13826e-05
1.13645e-05
3.70735e-06
1.1317e-05
1.08851e-05
8.39525e-06
1.15873e-05
1.1354e-05
1.13919e-05
1.12672e-05
1.11594e-05
1.13584e-05
1.13847e-05
1.13673e-05
1.1395e-05
1.12222e-05
8.6928e-06
1.13743e-05
1.13625e-05
1.13603e-05
1.11018e-05
1.13229e-05
1.13537e-05
1.13742e-05
1.13783e-05
1.1393e-05
1.13613e-05
1.06963e-05
8.74008e-06
1.13695e-05
1.1487e-05
1.13061e-05
8.07307e-06
1.1339e-05
1.13687e-05
1.13734e-05
1.13872e-05
1.13752e-05
1.12153e-05
1.13657e-05
1.12691e-05
1.13046e-05
6.31807e-06
1.16562e-05
1.13395e-05
7.6746e-06
1.13155e-05
1.07353e-05
1.13739e-05
1.13007e-05
1.13634e-05
9.56731e-06
1.13854e-05
1.13844e-05
1.13452e-05
6.51053e-06
1.13715e-05
1.13859e-05
8.14025e-06
1.13459e-05
1.13692e-05
1.13634e-05
1.13457e-05
1.13516e-05
1.13847e-05
1.12607e-05
1.13701e-05
1.12018e-05
4.55697e-06
7.62321e-06
1.1371e-05
1.13524e-05
1.13651e-05
1.13756e-05
3.94558e-06
1.11567e-05
1.13831e-05
1.11136e-05
1.13722e-05
7.66196e-06
1.13714e-05
1.13664e-05
1.12847e-05
1.13916e-05
1.06992e-05
1.13824e-05
1.11578e-05
7.02427e-06
3.11291e-06
1.13713e-05
1.13121e-05
1.13533e-05
1.13536e-05
1.13955e-05
6.09668e-06
1.12796e-05
1.13503e-05
7.72371e-06
1.12937e-05
1.13594e-05
1.14059e-05
1.13102e-05
1.1371e-05
1.13405e-05
2.3743e-06
1.13779e-05
1.15692e-05
8.75918e-06
1.05901e-05
7.91541e-06
7.29589e-06
1.13916e-05
1.13672e-05
1.13683e-05
1.13934e-05
1.13556e-05
8.50465e-06
6.82687e-06
1.14461e-05
1.1366e-05
1.13811e-05
7.81209e-06
1.13604e-05
1.13619e-05
1.13259e-05
1.13657e-05
1.13855e-05
1.13856e-05
1.13711e-05
1.13872e-05
1.16853e-05
8.26175e-06
1.15062e-05
1.13682e-05
8.25827e-06
1.13665e-05
1.14753e-05
1.13955e-05
1.15075e-05
1.13764e-05
5.87749e-06
1.13331e-05
1.13917e-05
1.13694e-05
1.14413e-05
1.14779e-05
7.62977e-06
1.13679e-05
1.13779e-05
1.14544e-05
1.16682e-05
1.13719e-05
1.13877e-05
1.13831e-05
1.13607e-05
1.13697e-05
1.13881e-05
1.13874e-05
7.93815e-06
8.79432e-06
1.13895e-05
8.4815e-06
1.13152e-05
1.13615e-05
1.13696e-05
1.13905e-05
8.55685e-06
4.90325e-06
1.13726e-05
1.14692e-05
1.13629e-05
1.13411e-05
1.13675e-05
1.13861e-05
1.13435e-05
7.66067e-06
1.13296e-05
1.13681e-05
1.12846e-05
8.18613e-06
1.13831e-05
8.1443e-06
1.13997e-05
1.14745e-05
1.13672e-05
1.13638e-05
1.13918e-05
1.13342e-05
1.13792e-05
1.13606e-05
1.13364e-05
1.13614e-05
1.13695e-05
1.13304e-05
1.13691e-05
8.63684e-06
1.13733e-05
1.13853e-05
1.13568e-05
1.13271e-05
1.13656e-05
1.13707e-05
1.13481e-05
1.13669e-05
2.37953e-06
1.13623e-05
1.13683e-05
1.13477e-05
1.13583e-05
1.13944e-05
1.13203e-05
1.14583e-05
7.76942e-06
1.13813e-05
1.13564e-05
1.1358e-05
8.2563e-06
1.13715e-05
1.1349e-05
-4.69699e-08
1.13818e-05
1.14437e-05
1.13378e-05
1.13426e-05
1.13938e-05
3.22013e-06
5.96278e-06
1.15203e-05
1.1304e-05
1.15353e-05
7.50577e-06
1.13264e-05
4.19926e-06
1.13575e-05
1.12978e-05
1.13716e-05
1.13964e-05
7.57876e-06
1.14632e-05
8.06132e-06
1.13245e-05
8.19168e-06
1.14817e-05
1.13614e-05
1.13638e-05
1.1437e-05
1.13884e-05
1.13744e-05
1.10625e-05
1.13336e-05
1.13615e-05
1.1377e-05
1.07112e-05
1.13896e-05
1.16661e-05
1.13869e-05
1.13674e-05
1.13543e-05
7.72284e-06
1.13686e-05
1.13888e-05
1.13686e-05
1.0733e-05
1.13329e-05
1.14719e-05
7.94139e-06
8.02646e-06
4.66004e-06
1.13765e-05
1.13965e-05
7.93282e-06
1.13419e-05
1.13757e-05
1.12669e-05
1.13748e-05
1.13818e-05
1.13744e-05
1.15023e-05
1.14976e-05
1.13871e-05
1.13455e-05
1.13669e-05
1.13766e-05
1.13657e-05
1.14141e-05
1.13275e-05
1.13649e-05
1.13884e-05
8.23949e-06
1.10452e-05
1.14568e-05
1.13938e-05
1.13512e-05
6.74602e-06
5.49526e-06
1.13935e-05
1.13725e-05
1.13324e-05
1.1336e-05
1.13574e-05
7.91431e-06
1.1368e-05
1.13548e-05
8.02649e-06
1.12884e-05
1.13634e-05
1.13923e-05
1.13312e-05
1.13967e-05
1.14138e-05
3.94832e-06
3.96884e-06
1.17268e-05
1.13481e-05
1.13882e-05
1.13809e-05
8.06901e-06
1.13632e-05
1.13599e-05
1.14191e-05
1.13975e-05
1.16245e-05
1.13835e-05
1.13888e-05
3.71048e-06
7.96133e-06
1.25092e-06
1.13866e-05
1.13708e-05
2.41417e-06
1.13564e-05
8.1425e-06
1.13902e-05
6.70782e-06
1.14684e-05
1.13859e-05
1.1115e-05
1.13693e-05
8.2682e-06
8.05436e-06
7.50183e-06
1.13524e-05
1.13935e-05
1.13984e-05
1.13784e-05
1.13657e-05
1.14721e-05
8.25826e-06
1.13896e-05
1.13667e-05
1.13706e-05
1.13391e-05
1.13671e-05
4.09018e-06
1.13621e-05
1.13873e-05
1.13732e-05
1.13803e-05
1.1382e-05
7.52649e-06
1.1653e-05
1.16335e-05
1.13406e-05
1.13723e-05
1.13968e-05
1.13878e-05
1.13836e-05
6.84869e-06
1.12923e-05
1.13381e-05
1.1487e-05
1.13895e-05
1.13761e-05
1.13656e-05
1.10183e-05
1.13573e-05
6.56122e-06
7.17136e-06
1.1384e-05
1.13924e-05
1.12581e-05
1.13621e-05
1.13659e-05
1.13531e-05
1.13347e-05
2.92672e-06
1.13813e-05
1.13863e-05
7.23466e-06
1.13699e-05
7.11959e-06
1.1369e-05
1.08563e-05
1.13661e-05
1.13817e-05
1.1389e-05
7.81656e-06
1.13604e-05
1.13464e-05
1.13684e-05
1.15281e-05
1.13974e-05
1.13708e-05
1.14008e-05
1.13824e-05
7.29924e-06
1.1392e-05
1.13783e-05
1.13782e-05
1.13608e-05
1.13694e-05
1.13656e-05
4.43962e-06
7.0755e-06
1.1362e-05
7.50417e-06
1.13881e-05
1.13621e-05
1.13856e-05
1.13794e-05
1.13799e-05
1.13602e-05
1.15028e-05
1.14338e-05
1.13822e-05
1.13855e-05
1.14691e-05
1.13215e-05
8.89615e-06
1.13982e-05
1.13363e-05
1.14316e-05
1.14556e-05
1.13826e-05
1.13803e-05
1.13926e-05
1.13083e-05
7.30403e-06
1.13653e-05
1.1385e-05
7.41623e-06
1.13801e-05
7.3261e-06
1.13993e-05
1.13855e-05
1.13676e-05
1.13783e-05
1.13551e-05
1.13932e-05
5.76146e-06
1.15041e-05
1.1398e-05
1.1343e-05
1.13646e-05
1.13238e-05
1.13819e-05
1.12937e-05
1.13858e-05
1.13657e-05
1.13891e-05
6.93396e-06
1.13851e-05
1.1428e-05
1.13348e-05
1.13938e-05
7.39956e-06
1.13938e-05
1.13596e-05
1.14368e-05
1.13999e-05
1.12435e-05
7.45277e-06
1.13883e-05
1.13957e-05
1.12622e-05
1.13809e-05
1.13823e-05
1.13873e-05
7.71985e-06
1.13814e-05
1.13645e-05
7.13613e-06
1.13506e-05
1.13867e-05
1.13741e-05
1.13589e-05
1.13498e-05
1.14114e-05
1.14581e-05
7.19267e-06
7.3036e-06
1.12171e-05
1.19841e-06
1.16254e-05
1.13809e-05
1.13655e-05
1.14075e-05
7.40422e-06
1.14085e-05
1.13499e-05
1.13816e-05
1.13671e-05
1.13774e-05
7.53914e-06
7.74456e-06
7.22276e-06
7.08081e-06
7.03068e-06
1.37357e-06
3.20972e-06
1.13864e-05
1.13872e-05
6.96013e-06
6.92809e-06
7.05775e-06
1.13838e-05
1.13343e-05
1.13959e-05
1.13652e-05
1.13804e-05
1.13853e-05
1.13874e-05
1.13924e-05
1.13777e-05
1.13844e-05
1.13794e-05
1.13852e-05
4.6533e-06
1.1381e-05
1.13887e-05
1.13838e-05
1.13862e-05
1.1384e-05
1.13817e-05
7.39551e-06
1.06554e-05
1.13869e-05
1.16033e-05
1.16138e-05
1.14043e-05
6.80089e-06
1.14038e-05
1.13858e-05
5.48924e-06
1.13544e-05
1.1392e-05
7.2835e-06
7.20368e-06
7.45714e-06
7.55802e-06
6.8638e-06
1.13941e-05
1.13734e-05
1.13939e-05
1.14485e-05
1.13856e-05
1.13823e-05
1.13657e-05
6.92761e-06
6.80268e-06
1.14412e-05
1.13962e-05
1.13795e-05
1.13881e-05
1.13936e-05
7.63324e-06
7.048e-06
6.97428e-06
1.13855e-05
1.13816e-05
1.15919e-05
1.13866e-05
1.15226e-05
1.13639e-05
8.07004e-06
1.13518e-05
1.13935e-05
6.34502e-06
6.90333e-06
7.12402e-06
1.13765e-05
1.07435e-05
1.13785e-05
1.51456e-06
6.6307e-06
7.65014e-06
1.13991e-05
1.1343e-05
7.01621e-06
1.13698e-05
7.15549e-06
1.13721e-05
1.13093e-05
1.13865e-05
6.74261e-06
1.14088e-05
1.1299e-05
1.13914e-05
1.13977e-05
1.13933e-05
6.362e-06
1.13869e-05
7.18846e-06
1.13894e-05
1.13609e-05
1.14593e-05
7.28335e-06
1.13852e-05
6.79641e-06
1.13712e-05
1.14278e-05
7.10052e-06
1.13753e-05
6.66537e-06
1.14011e-05
6.6055e-06
7.35282e-06
1.13624e-05
1.13893e-05
7.0205e-06
7.25323e-06
7.3307e-06
7.29978e-06
1.13879e-05
1.13333e-05
1.13826e-05
6.54576e-06
1.13664e-05
1.49296e-06
1.13951e-05
7.18333e-06
1.13592e-05
6.98337e-06
6.72409e-06
2.31375e-06
6.67406e-06
6.61981e-06
1.13728e-05
7.2245e-06
7.17609e-06
2.76127e-06
6.7347e-06
6.89806e-06
6.69289e-06
7.26056e-06
1.13743e-05
7.27544e-06
1.13927e-05
7.14701e-06
7.30577e-06
7.10696e-06
5.2205e-06
1.13998e-05
5.33231e-06
6.53568e-06
6.98762e-06
6.00279e-06
7.17522e-06
1.13895e-05
5.88017e-06
6.49924e-06
5.72533e-06
1.13404e-05
7.04334e-06
6.74674e-06
7.10011e-06
6.77749e-06
6.8724e-06
3.98223e-06
4.04786e-06
6.11786e-06
7.33423e-06
6.6938e-06
5.86779e-06
6.61502e-06
6.8871e-06
7.40617e-06
6.37544e-06
6.11824e-06
5.85577e-06
5.60374e-06
6.90687e-06
6.65543e-06
6.87355e-06
1.1399e-05
6.81438e-06
6.95422e-06
6.49193e-06
6.77597e-06
6.98298e-06
6.17321e-06
6.33235e-06
7.05357e-06
7.14417e-06
6.82324e-06
6.55437e-06
6.24598e-06
6.53139e-06
5.91388e-06
5.98519e-06
1.13804e-05
6.62274e-06
3.09596e-06
6.44295e-06
6.40601e-06
6.27689e-06
5.79266e-06
5.49929e-06
1.13851e-05
6.13808e-06
4.53041e-06
6.08335e-06
6.40531e-06
6.37155e-06
6.59142e-06
5.37259e-06
6.2097e-06
6.58993e-06
6.29058e-06
6.69352e-06
6.70551e-06
6.6796e-06
7.40809e-06
6.04112e-06
6.70415e-06
6.4237e-06
5.95885e-06
6.45344e-06
6.13905e-06
5.96196e-06
6.66247e-06
6.43289e-06
6.20904e-06
6.22736e-06
6.32963e-06
5.9934e-06
6.315e-06
6.30346e-06
5.73725e-06
6.56266e-06
5.84528e-06
5.98603e-06
7.1994e-06
5.64059e-06
6.05666e-06
5.84121e-06
6.4709e-06
6.16844e-06
6.25076e-06
6.03367e-06
1.13779e-05
6.2316e-06
6.10508e-06
6.00952e-06
5.96686e-06
5.87051e-06
6.00625e-06
5.73461e-06
6.41345e-06
6.40918e-06
6.0946e-06
5.78085e-06
6.08032e-06
1.14025e-05
5.98028e-06
7.16325e-06
5.99394e-06
5.86517e-06
5.62808e-06
5.52151e-06
6.1108e-06
5.99414e-06
5.56643e-06
5.94612e-06
5.89927e-06
6.19818e-06
5.88679e-06
5.95366e-06
5.83641e-06
5.73782e-06
5.67615e-06
5.98871e-06
5.85672e-06
6.13477e-06
5.45809e-06
5.93348e-06
5.91561e-06
5.96105e-06
5.30125e-06
5.4004e-06
5.73473e-06
5.34602e-06
5.52731e-06
5.88329e-06
5.66917e-06
5.85802e-06
5.85389e-06
5.73206e-06
5.97577e-06
6.84779e-06
5.3257e-06
5.80988e-06
5.80578e-06
5.43254e-06
5.71142e-06
5.20281e-06
5.78698e-06
5.61064e-06
5.40988e-06
6.08979e-06
5.22934e-06
5.2395e-06
5.61054e-06
5.60454e-06
3.77219e-06
5.35957e-06
5.57878e-06
5.11143e-06
5.32464e-06
5.29236e-06
5.68364e-06
5.40229e-06
5.513e-06
5.50688e-06
5.73216e-06
5.69083e-06
4.85085e-06
4.99733e-06
5.38351e-06
5.45998e-06
5.53042e-06
5.88765e-06
5.04104e-06
4.9509e-06
5.28972e-06
4.49976e-06
5.33564e-06
5.41864e-06
5.23045e-06
5.18733e-06
4.2621e-06
4.61594e-06
4.69185e-06
5.08121e-06
5.30914e-06
4.89066e-06
4.90147e-06
5.20971e-06
4.97923e-06
5.32298e-06
4.97289e-06
5.33174e-06
5.15662e-06
4.74382e-06
5.17938e-06
4.75792e-06
4.62941e-06
4.54698e-06
5.07524e-06
5.10469e-06
4.8864e-06
5.17043e-06
5.09485e-06
5.05999e-06
4.79131e-06
5.16944e-06
4.65478e-06
4.73518e-06
5.1857e-06
4.65534e-06
4.82684e-06
5.06168e-06
4.78266e-06
5.21919e-06
4.38335e-06
4.86354e-06
5.43117e-06
4.98726e-06
5.05652e-06
4.94109e-06
4.54878e-06
5.00599e-06
4.43048e-06
4.62039e-06
4.75137e-06
4.89763e-06
5.13385e-06
4.83488e-06
4.646e-06
4.54712e-06
4.9219e-06
4.76732e-06
4.90072e-06
6.73991e-06
4.42839e-06
4.78306e-06
1.44169e-06
1.49845e-06
4.74742e-06
4.68257e-06
4.48778e-06
4.44553e-06
4.81308e-06
4.69584e-06
3.67857e-06
4.53443e-06
4.74325e-06
4.84998e-06
4.30777e-06
4.70758e-06
5.25571e-06
4.31493e-06
4.61675e-06
4.99611e-06
4.63621e-06
4.19961e-06
4.54179e-06
4.37258e-06
4.81943e-06
4.65763e-06
4.12081e-06
4.74215e-06
4.5269e-06
3.83066e-06
4.67e-06
4.03168e-06
4.44483e-06
4.50779e-06
4.33285e-06
4.52578e-06
3.74436e-06
6.36413e-06
4.45345e-06
4.00907e-06
4.30729e-06
4.17585e-06
4.43102e-06
3.7519e-06
3.88501e-06
4.178e-06
3.8775e-06
3.95362e-06
4.34241e-06
4.22969e-06
4.25855e-06
3.94066e-06
4.27066e-06
4.10067e-06
3.85115e-06
4.47199e-06
4.22846e-06
4.30746e-06
4.17933e-06
3.7744e-06
4.12463e-06
4.19661e-06
4.14494e-06
4.03892e-06
4.34622e-06
3.95346e-06
3.64162e-06
4.23713e-06
3.9173e-06
4.0174e-06
4.13441e-06
2.67881e-06
3.70696e-06
3.9069e-06
4.06813e-06
3.96541e-06
4.11481e-06
4.56574e-06
3.12624e-06
3.84198e-06
3.50424e-06
3.59042e-06
4.02697e-06
4.05581e-06
3.92422e-06
3.82171e-06
3.84157e-06
3.8478e-06
3.53472e-06
3.73314e-06
3.55371e-06
3.04787e-06
2.64842e-06
3.24476e-06
2.77414e-06
4.84386e-06
3.37152e-06
3.78429e-06
2.94619e-06
3.7278e-06
3.68632e-06
3.59319e-06
3.1177e-06
2.83676e-06
3.62337e-06
3.81523e-06
3.60381e-06
3.45139e-06
3.08495e-06
3.71754e-06
2.40832e-06
3.3583e-06
2.52525e-06
3.64859e-06
3.3249e-06
2.91479e-06
3.61929e-06
3.70464e-06
3.46868e-06
3.61798e-06
3.58942e-06
3.30886e-06
3.18439e-06
3.74793e-06
3.33535e-06
2.28861e-06
2.70412e-06
3.41216e-06
3.58978e-06
3.50126e-06
3.49758e-06
3.4419e-06
3.19162e-06
2.88014e-06
3.24142e-06
2.77686e-06
3.06607e-06
2.98921e-06
3.17314e-06
3.36266e-06
2.99911e-06
3.18043e-06
3.23314e-06
3.26417e-06
4.41477e-06
3.50595e-06
3.40928e-06
2.95728e-06
3.45661e-06
3.84176e-06
3.35988e-06
3.48267e-06
3.36041e-06
3.09487e-06
3.01831e-06
2.87331e-06
3.26851e-06
3.06104e-06
2.99564e-06
3.32093e-06
3.58e-06
3.16404e-06
2.96477e-06
2.57157e-06
3.10855e-06
3.44141e-06
3.25252e-06
2.67958e-06
3.08029e-06
2.9847e-06
3.13207e-06
3.36384e-06
2.98387e-06
2.85788e-06
2.77868e-06
2.62427e-06
3.05643e-06
2.27181e-06
2.37031e-06
2.9516e-06
2.77901e-06
2.75358e-06
3.24628e-06
2.48998e-06
2.55105e-06
3.02347e-06
3.05872e-06
2.84968e-06
2.71799e-06
2.52513e-06
2.68149e-06
2.86794e-06
2.45197e-06
2.54326e-06
2.57698e-06
2.92756e-06
2.76663e-06
2.88412e-06
2.14338e-06
2.53572e-06
2.63807e-06
2.43843e-06
2.33812e-06
3.98243e-06
2.77669e-06
2.62408e-06
2.61099e-06
2.81474e-06
2.88494e-06
2.30034e-06
2.85538e-06
2.63279e-06
2.67431e-06
2.21733e-06
2.24719e-06
2.4008e-06
2.52874e-06
2.6813e-06
2.63342e-06
2.39863e-06
2.74808e-06
2.17961e-06
2.77643e-06
2.09247e-06
2.63213e-06
1.79187e-06
2.33321e-06
2.30296e-06
1.99012e-06
2.09509e-06
2.44597e-06
1.98531e-06
1.95921e-06
3.39921e-06
2.26619e-06
2.42912e-06
2.11644e-06
2.1166e-06
1.83677e-06
1.89668e-06
1.9166e-06
2.11331e-06
1.91947e-06
2.22222e-06
1.97399e-06
1.97018e-06
1.91074e-06
2.01986e-06
2.17295e-06
1.71381e-06
1.70407e-06
1.89413e-06
1.69425e-06
2.11504e-06
1.74449e-06
1.83631e-06
2.21716e-06
2.0562e-06
1.66717e-06
1.5921e-06
2.03567e-06
1.71357e-06
1.79532e-06
2.00376e-06
1.64858e-06
1.47148e-06
1.79897e-06
1.57627e-06
1.68007e-06
1.60059e-06
1.77235e-06
1.35211e-06
1.59586e-06
1.42256e-06
1.62196e-06
1.9322e-06
1.42376e-06
1.86437e-06
1.81532e-06
1.31574e-06
1.96541e-06
1.46622e-06
4.36415e-06
1.66804e-06
2.33208e-06
1.59752e-06
1.52682e-06
1.53228e-06
5.18327e-06
4.03332e-06
3.76286e-06
2.64304e-06
1.76147e-06
2.19709e-06
1.15883e-06
1.42941e-06
1.36504e-06
2.39994e-06
1.20888e-06
1.69393e-06
6.36156e-06
2.77214e-06
3.38921e-06
2.48263e-06
1.72541e-06
3.79852e-06
4.18059e-06
3.88883e-06
2.7664e-06
2.11121e-06
5.62848e-06
2.0422e-06
5.05067e-06
1.49749e-06
1.31723e-06
1.55955e-06
5.80126e-06
1.58573e-06
7.38725e-06
3.21241e-06
3.27765e-06
3.50555e-06
3.46139e-06
5.70851e-06
3.64749e-06
2.63885e-06
2.63319e-06
3.54115e-06
3.69662e-06
3.69011e-06
1.26456e-06
4.89199e-06
4.84897e-06
2.42104e-06
6.07251e-06
3.73607e-06
6.61359e-07
2.91531e-06
1.43342e-06
4.12392e-06
7.47651e-06
7.74424e-06
2.34349e-06
1.79858e-06
1.64289e-06
5.25893e-06
1.83182e-06
5.23702e-06
1.58421e-06
5.77847e-06
5.98318e-06
2.2273e-06
7.8426e-06
1.40955e-06
1.49057e-06
4.02619e-06
6.15052e-06
4.65895e-06
5.02957e-06
5.34915e-06
6.24234e-06
2.80131e-06
8.37839e-06
1.48946e-06
4.24245e-06
1.6416e-06
7.28146e-06
7.51263e-06
1.46195e-06
7.77369e-07
7.5462e-06
6.01769e-06
6.13101e-06
6.35081e-06
7.4803e-06
8.89505e-07
9.80471e-07
5.1474e-06
5.72951e-06
7.60382e-06
6.13855e-06
1.56386e-06
4.3353e-06
7.75511e-06
5.60657e-06
1.52559e-06
5.48879e-06
8.03214e-06
6.44364e-06
8.28963e-06
3.43766e-06
2.1876e-06
2.07501e-06
1.49653e-06
7.24661e-06
7.09801e-06
6.21519e-06
1.23288e-06
1.33153e-06
1.978e-06
7.45813e-06
1.31207e-06
1.56737e-06
1.55208e-06
2.11135e-06
2.58387e-06
1.53438e-06
1.42693e-06
2.62633e-06
1.53871e-06
1.69514e-06
2.13193e-06
1.86724e-06
2.47794e-06
1.69603e-06
2.12337e-06
2.50462e-06
1.87319e-06
2.2063e-06
2.04203e-06
2.70819e-06
2.48504e-06
2.06512e-06
2.08241e-06
2.04153e-06
2.20754e-06
3.07741e-06
2.16541e-06
3.28683e-06
2.01204e-06
2.14834e-06
2.22922e-06
1.99755e-06
3.32147e-06
2.16329e-06
2.92199e-06
2.32903e-06
2.34147e-06
3.21823e-06
2.38157e-06
3.48385e-06
3.93213e-06
3.0632e-06
2.44564e-06
3.82841e-06
3.50293e-06
3.55676e-06
3.57513e-06
3.33202e-06
3.22373e-06
3.42175e-06
2.52283e-06
3.44719e-06
3.19731e-06
3.38474e-06
2.46957e-06
3.43321e-06
4.34129e-06
3.5458e-06
3.66062e-06
3.71904e-06
3.36385e-06
4.39473e-06
3.4469e-06
3.61969e-06
3.75016e-06
4.07735e-06
3.64447e-06
3.47988e-06
4.17443e-06
4.74818e-06
4.07823e-06
4.38287e-06
4.32177e-06
5.08875e-06
4.19478e-06
4.44916e-06
3.48871e-06
5.05457e-06
4.2838e-06
4.57242e-06
4.7119e-06
4.24643e-06
4.62253e-06
4.90962e-06
5.3572e-06
4.74067e-06
4.85456e-06
4.96203e-06
5.72465e-06
5.02828e-06
4.86548e-06
5.28679e-06
5.70198e-06
5.3314e-06
4.92432e-06
4.86199e-06
4.80231e-06
5.59145e-06
5.43493e-06
4.94649e-06
4.88072e-06
4.98223e-06
5.42058e-06
5.06543e-06
5.50914e-06
4.99858e-06
5.63554e-06
5.11034e-06
5.82816e-06
5.61021e-06
5.50811e-06
6.3287e-06
5.73151e-06
5.79397e-06
5.8449e-06
6.1834e-06
5.80045e-06
5.1215e-06
6.5574e-06
5.70957e-06
1.14013e-05
6.0586e-06
6.86037e-06
6.1043e-06
6.69984e-06
6.77496e-06
1.13666e-05
6.3128e-06
6.89497e-06
7.0202e-06
1.38511e-06
6.33867e-06
6.56536e-06
1.13876e-05
7.08305e-06
6.96461e-06