/*--------------------------------*- C++ -*----------------------------------*\
  =========                 |
  \\      /  F ield         | OpenFOAM: The Open Source CFD Toolbox
   \\    /   O peration     | Website:  https://openfoam.org
    \\  /    A nd           | Version:  8
     \\/     M anipulation  |
\*---------------------------------------------------------------------------*/
FoamFile
{
    version     2.0;
    format      ascii;
    class       surfaceScalarField;
    location    "4.2";
    object      phi;
}
// * * * * * * * * * * * * * * * * * * * * * * * * * * * * * * * * * * * * * //

dimensions      [0 3 -1 0 0 0 0];

internalField   nonuniform List<scalar> 
8224
(
4.03071e-10
3.52934e-10
-5.7298e-10
-1.83025e-10
-3.19242e-11
4.13089e-09
-1.05053e-10
-3.99391e-09
-4.1007e-10
-1.79951e-10
-1.86245e-10
7.76266e-10
-7.67052e-09
2.91105e-09
-2.51378e-09
7.27325e-09
4.10331e-09
-1.66279e-10
2.17065e-10
-4.1541e-09
4.31765e-09
-2.86333e-10
1.68866e-10
-4.20018e-09
-4.0946e-09
-6.64899e-10
-1.36995e-10
4.8965e-09
-4.46643e-09
5.28898e-10
-8.70444e-11
4.02457e-09
2.45377e-09
-2.77985e-09
3.26077e-10
-2.86999e-09
-3.00325e-09
5.70691e-09
1.66333e-10
-6.79584e-10
-1.7347e-12
6.79386e-10
1.9328e-12
-8.74576e-10
-3.69757e-09
5.11628e-09
-5.44137e-10
-9.76195e-10
-1.71129e-10
1.95247e-09
-8.05147e-10
1.88878e-09
-9.50479e-10
-8.53366e-09
7.59536e-09
3.14424e-09
-2.9821e-09
-1.62135e-10
-4.62254e-09
4.6411e-09
2.1319e-11
-3.98807e-11
-4.27105e-09
6.93006e-10
8.70105e-11
3.49103e-09
5.61632e-09
-4.58538e-09
4.76839e-09
-5.79934e-09
2.51688e-09
-2.01587e-09
-3.99899e-09
3.49798e-09
-4.62405e-09
2.40682e-10
-8.30622e-11
-4.94086e-10
4.40264e-10
-4.68771e-10
5.22594e-10
-5.05308e-09
5.0868e-09
1.02884e-09
-1.06256e-09
-1.40314e-09
2.20151e-10
1.42127e-09
-2.3828e-10
-5.59489e-09
2.71323e-10
-9.89868e-11
5.42255e-09
4.99368e-09
-4.72256e-09
-1.00221e-09
7.3109e-10
-3.77409e-09
4.5753e-10
-9.53628e-11
3.41192e-09
-5.00957e-09
-6.5616e-10
6.1265e-10
-4.25156e-09
-1.58979e-10
6.16419e-11
4.3489e-09
1.50143e-10
4.21096e-09
-4.16023e-10
-3.94508e-09
2.83952e-09
-8.11124e-10
-6.37178e-09
4.34339e-09
-7.9668e-11
8.83797e-11
-5.38303e-09
7.88328e-09
-3.91557e-10
-2.1087e-09
3.947e-09
7.76498e-11
-2.11376e-10
-3.81327e-09
2.52252e-11
3.02511e-09
-3.52379e-09
4.73447e-10
2.05228e-10
4.95142e-10
-6.76715e-09
6.06678e-09
4.47458e-09
5.81263e-11
-9.50801e-11
-4.43763e-09
4.82625e-11
-1.7024e-10
-5.4699e-09
5.59188e-09
4.49206e-09
1.64454e-10
1.09971e-10
-4.76649e-09
5.30679e-09
2.12077e-10
-6.19649e-09
6.77624e-10
-4.23698e-09
4.36388e-09
-2.23078e-10
9.61777e-11
-7.61871e-09
-4.07588e-09
6.68825e-09
5.00634e-09
5.04312e-09
1.32649e-10
-4.94203e-09
-2.33746e-10
-3.62198e-10
-5.40112e-09
4.70409e-09
1.05924e-09
3.6038e-09
-4.03717e-09
2.58379e-10
1.74994e-10
4.11524e-09
-4.61874e-09
-8.96019e-10
1.39952e-09
-3.96439e-09
3.92835e-09
6.10321e-11
-2.49904e-11
4.32796e-09
6.60706e-09
-4.96927e-09
-5.96575e-09
4.72542e-09
-4.70384e-09
-1.65941e-10
1.44355e-10
-4.29703e-09
5.39298e-09
2.26913e-10
-1.32286e-09
-1.08478e-08
-1.51078e-09
5.00059e-09
7.35795e-09
3.83566e-09
-3.88186e-09
4.6195e-11
-4.57065e-09
-8.96267e-11
3.77305e-11
3.99796e-09
-3.84657e-09
1.06091e-10
-2.57475e-10
-3.60168e-09
-8.80735e-09
2.39086e-09
1.00182e-08
-1.08743e-08
7.5606e-09
3.79248e-09
-4.78808e-10
4.98078e-11
-3.27506e-11
5.22963e-09
-6.04239e-09
8.12756e-10
5.58548e-11
-5.24765e-09
-2.37533e-10
5.42933e-09
-3.98369e-09
2.99446e-10
-1.18135e-10
3.80238e-09
4.71557e-09
3.83618e-11
-2.85114e-11
4.2636e-09
-4.14064e-09
9.71568e-11
-2.20115e-10
-4.43612e-09
4.39991e-09
-8.7964e-11
1.24173e-10
-4.8596e-09
1.29198e-10
7.91454e-10
3.93895e-09
-3.01389e-12
-4.04259e-11
4.36109e-09
-4.21123e-11
-2.69896e-10
-3.93955e-09
-5.27608e-10
5.17154e-09
1.88797e-09
-6.5319e-09
-4.84088e-09
4.48185e-09
4.82552e-09
-4.46648e-09
-5.84618e-09
8.06175e-09
2.71496e-09
-4.93053e-09
-4.34567e-09
4.40489e-09
-1.32915e-11
-4.59291e-11
-4.65883e-09
4.5991e-09
-8.75121e-11
1.47234e-10
3.68786e-09
-3.26653e-11
2.54214e-11
-3.68061e-09
-6.53461e-10
-4.34409e-09
7.81213e-10
4.21634e-09
5.87114e-09
-3.12283e-10
1.29657e-10
-5.68851e-09
2.73149e-11
5.16936e-09
-1.74603e-11
-5.17921e-09
-9.5141e-09
6.64602e-09
-7.5444e-09
1.04125e-08
-2.51986e-09
2.67716e-09
-6.43718e-09
6.27988e-09
-2.36353e-10
-3.29898e-09
3.53533e-09
4.42148e-09
-7.2823e-10
-3.92068e-09
2.27431e-10
4.52309e-09
-4.46491e-09
1.43905e-11
-7.25791e-11
5.27003e-09
-5.09215e-09
1.81849e-10
-3.59736e-10
4.18091e-09
-3.70456e-09
-3.34634e-09
7.15771e-10
4.88988e-09
-4.95179e-09
-6.53861e-10
-3.16613e-09
5.06324e-09
3.599e-09
-5.49611e-09
-4.18797e-09
-8.57133e-11
4.23409e-09
3.95964e-11
-4.14745e-09
4.24291e-09
-1.94942e-10
9.9482e-11
-8.85672e-09
3.49827e-10
2.54315e-09
5.96374e-09
-5.14734e-09
-1.24985e-09
5.52261e-09
3.71298e-09
6.27522e-12
-3.62052e-09
-9.87383e-11
-4.28638e-10
6.00195e-09
-3.03281e-10
5.00553e-09
-3.46259e-09
-7.8001e-09
6.25716e-09
-3.06154e-10
5.25379e-09
-5.47525e-09
-1.86911e-09
-5.07436e-09
3.30963e-09
3.63384e-09
-4.75897e-09
4.60191e-09
3.02953e-10
-1.45891e-10
-3.6841e-09
3.61342e-09
8.83499e-11
-1.76714e-11
1.50306e-09
-1.67778e-10
3.39746e-09
-4.73274e-09
-4.58461e-09
9.01456e-10
-1.25299e-10
3.80845e-09
2.93944e-09
-7.56315e-09
-1.29904e-09
5.92276e-09
-1.42077e-10
6.0003e-11
-6.33391e-09
-6.58262e-11
1.40041e-09
4.99932e-09
3.92633e-09
-5.52273e-10
1.83842e-10
-3.55789e-09
-4.13389e-09
-2.04035e-10
1.00945e-10
8.86973e-10
-3.0846e-10
4.46461e-09
5.65991e-09
7.43131e-11
-1.82331e-10
-5.5519e-09
-3.78634e-09
-7.10271e-10
1.99579e-10
1.1969e-10
-6.29434e-11
-4.02403e-09
-1.90493e-10
8.06281e-11
-4.07197e-09
1.48515e-10
-3.82565e-11
3.96171e-09
-5.85533e-09
3.88272e-09
-1.86773e-09
3.84034e-09
-4.11726e-09
2.66893e-09
1.44833e-09
-3.20945e-09
3.89307e-09
-6.54995e-09
5.86633e-09
-4.79898e-09
4.9583e-09
4.32562e-09
-4.48494e-09
3.59124e-09
8.92803e-11
-1.48307e-10
-3.53222e-09
-4.08012e-09
-1.72985e-10
1.0565e-10
-1.61265e-09
4.17697e-09
-6.19284e-09
3.62852e-09
-6.41247e-10
-1.1043e-10
7.20936e-11
3.88097e-09
3.74722e-10
-4.41712e-09
1.61425e-10
2.4128e-09
2.48005e-09
-8.09424e-10
-4.08343e-09
-3.8971e-09
3.89609e-09
-3.05833e-13
1.31101e-12
1.04812e-09
9.44727e-10
-6.31754e-09
4.3247e-09
-8.33864e-09
2.77258e-09
7.45484e-09
-2.67698e-09
2.79999e-09
-4.73623e-09
4.61323e-09
-3.79428e-09
3.65697e-09
1.45598e-10
-8.28759e-12
-5.56087e-09
1.85629e-10
-1.65361e-10
5.5406e-09
1.16686e-10
-3.09802e-11
-3.92096e-09
3.83526e-09
-2.42945e-09
2.34086e-09
-2.22145e-09
2.31004e-09
6.61887e-11
-4.45398e-09
-2.36927e-10
4.62472e-09
-7.45905e-09
4.51078e-09
-2.61178e-10
1.99374e-10
-3.33544e-10
-3.83698e-09
3.97115e-09
-3.33935e-09
7.94598e-10
3.71082e-09
-1.16607e-09
-6.03439e-09
3.97877e-09
4.99506e-09
4.94355e-11
-2.46065e-09
2.41122e-09
-7.48869e-10
-4.46485e-09
1.26509e-09
3.94863e-09
-4.30037e-09
4.39174e-09
7.76624e-11
-1.6904e-10
-9.4375e-10
3.81395e-09
-2.85942e-09
-1.07801e-11
-3.84509e-09
-1.47229e-11
-3.7278e-11
-1.01579e-10
-9.26769e-09
-7.92338e-11
1.71726e-10
-5.55981e-09
5.46732e-09
-5.49555e-09
5.05133e-09
-1.84206e-09
2.28628e-09
-2.88017e-11
2.39673e-09
-2.36793e-09
5.22122e-09
-1.63256e-10
3.47813e-11
-5.09275e-09
3.73366e-09
8.40467e-11
-1.48188e-10
-3.66952e-09
-1.8451e-09
9.44766e-10
4.42212e-09
-3.52179e-09
4.5757e-09
-8.75236e-09
7.24433e-09
-3.06767e-09
-3.95712e-09
4.79021e-11
-1.14809e-10
4.00792e-09
-3.93618e-09
7.58209e-11
-1.47561e-10
4.40354e-09
-4.8063e-09
6.79958e-10
-2.7719e-10
-6.07177e-09
3.07464e-09
-3.22319e-09
6.22032e-09
-4.71351e-09
1.04608e-10
4.97207e-09
-3.63168e-10
-7.01717e-09
2.91744e-09
6.49369e-09
-2.39396e-09
3.87586e-09
-3.80423e-09
7.77197e-11
-1.49343e-10
6.59685e-10
-1.97435e-09
4.22353e-09
-2.90886e-09
-1.92089e-08
1.07102e-10
1.91018e-08
9.96739e-12
-4.16299e-09
4.17615e-09
-2.31265e-11
1.59301e-09
-7.02991e-09
-1.17079e-09
6.60769e-09
4.51788e-09
5.8096e-09
-4.71116e-09
5.41626e-09
-2.40862e-10
4.58261e-11
-2.62844e-10
-6.36989e-09
-1.24814e-09
7.88087e-09
-3.5136e-09
3.68718e-09
-6.80671e-11
-1.05514e-10
3.756e-09
-1.46331e-10
-8.07176e-11
-3.52895e-09
4.77546e-11
-2.29267e-09
2.24491e-09
-2.45756e-10
5.1591e-10
4.13338e-09
-1.48636e-09
4.76143e-10
-4.84511e-09
-4.89898e-09
-5.95547e-09
4.78267e-09
-5.45733e-09
1.92192e-09
1.30605e-10
3.40481e-09
-1.46727e-10
5.2877e-09
-5.00832e-09
-5.81384e-09
-1.19295e-09
6.94776e-09
5.90262e-11
-2.19712e-10
-5.10975e-09
5.16621e-09
-4.36122e-09
4.50538e-09
-3.44749e-10
2.00594e-10
-9.94717e-11
5.192e-11
5.65835e-09
-2.42988e-09
2.00185e-09
-5.23031e-09
-3.68628e-09
3.62874e-09
-6.86882e-11
1.2623e-10
5.1138e-09
-7.82002e-10
-4.37066e-09
3.88628e-11
-1.59314e-10
8.71105e-11
-4.13916e-09
-1.37286e-08
-2.01741e-09
8.2855e-09
-1.00255e-08
-9.98494e-09
1.1725e-08
2.51679e-09
5.61758e-09
-3.95347e-09
-8.64779e-09
7.19642e-09
9.73688e-09
-3.40594e-09
5.99593e-10
2.80635e-09
3.70992e-09
-2.04768e-09
6.91429e-10
-2.35367e-09
4.98647e-09
-4.01094e-09
-1.79614e-09
8.20615e-10
-7.13516e-09
-9.62451e-10
1.07342e-09
7.02419e-09
-4.27401e-09
4.48443e-09
6.36432e-09
-6.57474e-09
-7.71255e-09
-2.24291e-09
7.4356e-09
-7.43726e-11
4.16286e-10
-6.6212e-09
6.27929e-09
-8.37022e-09
-4.32976e-09
1.85222e-09
-3.91467e-09
3.80519e-09
1.38985e-10
-2.95014e-11
-3.85407e-09
2.69988e-11
-1.80205e-11
1.9751e-09
-1.2346e-08
1.1486e-08
-1.11514e-09
-5.1728e-09
4.82565e-09
-2.71866e-11
3.74345e-10
-4.52247e-10
1.14753e-10
-3.06e-09
-8.44327e-09
8.42685e-09
3.07642e-09
3.90787e-09
4.54891e-09
-5.61727e-09
4.09459e-09
-3.99917e-09
-1.70423e-10
7.4996e-11
3.23787e-09
2.9234e-09
-2.55747e-09
4.04819e-09
7.69494e-10
-1.10776e-09
-4.63505e-09
3.2385e-09
-8.98055e-11
3.95641e-09
-3.80517e-09
2.32837e-10
-3.84084e-10
-4.46112e-09
4.39468e-09
-1.76195e-10
2.42635e-10
5.70408e-09
-3.43858e-10
-5.49931e-09
1.39093e-10
-8.53381e-09
5.88995e-09
-3.39053e-09
-5.43546e-09
-3.51369e-09
2.7455e-09
6.20365e-09
-6.6194e-09
8.64357e-10
5.67352e-09
8.15278e-11
-3.89871e-09
-1.07089e-10
-3.13663e-11
-4.50802e-09
-3.7061e-10
1.65115e-10
9.01516e-10
-4.85866e-09
4.43911e-09
-4.81964e-10
-5.15304e-09
-1.96034e-09
2.37555e-09
4.73783e-09
-4.57815e-09
5.35319e-10
5.91412e-11
4.67814e-10
-4.76161e-09
4.55034e-09
-6.45832e-10
2.18173e-11
-3.98665e-09
3.81378e-09
-4.16452e-09
4.33739e-09
-3.38774e-10
1.2325e-09
-4.88038e-09
-7.99057e-09
-3.04734e-09
7.97792e-09
3.05465e-09
-3.21633e-09
1.61674e-10
2.93623e-09
-7.4837e-09
-2.4697e-09
4.19596e-09
-2.84555e-10
-3.90144e-09
-4.30575e-09
-1.64391e-10
4.35437e-09
1.15773e-10
1.26264e-08
-1.58686e-08
-7.83033e-09
1.10726e-08
-4.84265e-09
-1.43218e-09
6.03847e-09
-1.65388e-09
5.8876e-09
-5.82727e-10
-5.18411e-09
-9.1968e-10
6.68651e-09
-1.4128e-09
2.70072e-10
-3.44188e-09
-4.39275e-10
-1.19093e-10
6.42823e-11
-4.02771e-09
4.92484e-11
1.40742e-11
2.71394e-09
-4.38107e-09
-4.95606e-09
6.62319e-09
2.8176e-10
-3.20378e-09
2.92202e-09
-7.99884e-09
3.77822e-09
5.26873e-09
-5.82599e-09
-1.54696e-08
6.80375e-09
1.44918e-08
1.44198e-10
2.91045e-09
4.13769e-09
-3.77673e-09
2.12334e-10
-5.73293e-10
4.32318e-09
-4.36623e-09
-3.36384e-09
3.40688e-09
1.33273e-08
-1.43073e-08
7.05636e-09
-6.07636e-09
-1.51794e-10
5.84181e-11
1.32915e-09
1.30275e-08
-1.37008e-08
-6.55903e-10
-1.19426e-09
-3.27132e-09
1.94537e-10
3.91841e-09
-3.83175e-09
-1.58716e-10
7.2056e-11
6.73191e-09
-5.51279e-09
-4.37157e-09
3.15245e-09
8.91441e-11
-1.48716e-11
-1.71181e-09
3.11203e-10
-4.9333e-09
-4.01126e-09
4.62253e-10
4.20869e-09
-5.81926e-09
4.22243e-10
-1.17335e-10
5.51435e-09
-4.51169e-09
1.6098e-10
-8.54105e-11
4.20927e-09
-4.69285e-09
-2.0501e-10
6.8859e-10
-4.41821e-09
-1.97196e-09
4.43094e-09
1.95923e-09
-6.7765e-10
-4.64334e-09
4.71762e-09
6.03367e-10
5.74601e-09
3.95974e-10
-1.02611e-09
-5.11587e-09
-4.46285e-09
1.05734e-09
-1.224e-09
4.62952e-09
-3.39082e-09
4.49113e-09
-1.10031e-09
-5.33092e-09
-4.27932e-09
3.4873e-09
6.12295e-09
-4.16211e-09
5.49711e-10
-5.50589e-10
2.14485e-10
-3.96858e-09
-4.01871e-11
1.98542e-09
-5.57326e-09
-1.04721e-09
3.48709e-09
-1.41898e-10
-3.40519e-09
5.99981e-11
-4.21323e-09
-6.65576e-10
1.1782e-09
3.70061e-09
-5.75704e-11
-3.53416e-12
4.85379e-09
-4.08139e-09
2.68417e-09
-3.45657e-09
3.60618e-10
-9.27707e-11
4.20674e-09
-1.06149e-08
2.98321e-09
7.73256e-09
-1.00887e-10
3.7019e-09
-1.29575e-10
-3.63065e-09
5.83215e-11
1.02757e-09
-9.98006e-09
8.00201e-09
5.13631e-09
2.07175e-10
-4.26073e-10
-4.91741e-09
-5.02416e-09
-2.58551e-10
4.84861e-10
4.79785e-09
-3.2207e-09
-5.58754e-09
6.46153e-09
2.34672e-09
-7.48606e-09
-9.23439e-09
-3.7067e-09
-1.20256e-11
3.46297e-11
-1.93351e-08
1.60377e-08
-2.52862e-09
-4.24803e-09
-2.65325e-10
1.52131e-10
3.46196e-09
-3.62481e-09
1.33037e-09
-1.16752e-09
7.87638e-10
-1.11926e-09
6.12446e-09
-5.79285e-09
5.49415e-11
-8.40231e-11
3.97608e-09
2.08827e-09
-4.43124e-09
-6.51374e-09
-1.013e-08
-3.5237e-09
9.51458e-09
-2.71648e-09
3.33245e-10
2.38323e-09
-5.00927e-09
5.03897e-09
1.91554e-10
-2.21248e-10
-1.51227e-10
1.44407e-09
4.10014e-09
-4.42848e-11
-3.68311e-09
4.11165e-11
-4.99423e-09
-2.27469e-10
2.12426e-10
-5.80371e-09
5.99083e-09
-7.80583e-09
1.70104e-10
-8.26891e-11
-1.40308e-10
1.30629e-10
5.12572e-09
-5.11604e-09
-8.13464e-09
-6.76005e-09
5.3806e-09
-3.24441e-10
-5.56037e-09
9.58404e-10
4.92641e-09
2.93867e-09
-4.77881e-09
3.3432e-09
-2.34881e-10
-3.89139e-09
5.4946e-10
3.57681e-09
-3.80657e-09
5.84677e-09
-5.2609e-09
-3.29283e-10
-3.05689e-09
3.38617e-09
-2.39461e-10
9.81564e-11
-2.97971e-10
8.5698e-09
1.43564e-09
-1.15162e-08
4.07457e-09
-2.661e-09
-6.7445e-09
3.26232e-09
-1.81576e-09
3.54712e-09
-1.00229e-09
4.06842e-09
-5.5455e-09
4.37934e-09
5.27327e-10
6.38835e-10
6.02626e-09
5.03526e-09
-6.20773e-09
2.10843e-09
-4.74721e-10
-4.84107e-09
3.20736e-09
7.66516e-09
2.89592e-10
6.15051e-10
-2.83226e-09
2.82925e-09
-4.11483e-09
2.28539e-09
-8.47544e-10
2.57333e-09
-4.84096e-09
4.0312e-09
-1.76357e-09
-5.10819e-09
-2.50108e-10
5.09302e-09
2.65272e-10
-3.90655e-09
-4.22198e-11
5.76932e-11
3.89107e-09
3.42981e-09
-3.49564e-09
-4.59379e-09
1.5941e-09
5.79969e-09
-1.35878e-08
-8.67538e-09
8.1352e-09
1.41279e-08
-5.52378e-09
5.47836e-09
7.80394e-11
-3.26239e-11
-4.48979e-09
7.43117e-09
4.22061e-09
-7.16199e-09
1.35486e-09
-1.41539e-09
8.33591e-10
-6.13841e-10
-1.69201e-08
1.85469e-08
-6.95244e-09
5.3257e-09
-1.04644e-09
6.56455e-11
-1.27184e-08
1.36992e-08
1.94941e-09
6.19202e-09
-5.32669e-09
-2.81473e-09
4.26165e-09
-1.10668e-09
7.64179e-10
-3.91915e-09
8.18674e-11
-1.62619e-10
-6.86714e-09
-7.8639e-09
6.88602e-09
7.84502e-09
-2.5318e-10
1.10497e-10
2.40331e-09
-1.37908e-09
2.72466e-09
-3.74889e-09
-3.96316e-09
1.86105e-11
-8.31568e-11
-2.65259e-09
6.64761e-09
1.66333e-09
-3.89313e-10
3.60001e-10
-2.17806e-10
2.47117e-10
4.08666e-09
-5.14568e-09
3.77296e-09
-3.27099e-10
-4.97948e-09
4.65272e-09
-9.25769e-10
-4.22482e-09
4.36858e-09
-4.02602e-10
-4.45428e-09
-2.35265e-10
-1.7922e-08
-7.31032e-10
2.26634e-10
1.84264e-08
4.86012e-11
-5.93809e-09
-5.72684e-09
-3.55994e-09
3.50132e-09
-8.64611e-11
1.45079e-10
1.40346e-10
3.51775e-09
-4.46739e-11
-2.27507e-09
1.94224e-09
1.80016e-08
-1.76687e-08
-2.53656e-12
-3.46975e-09
8.82651e-10
2.58963e-09
1.88197e-09
-3.4995e-09
5.17749e-09
-3.55996e-09
-9.18108e-10
2.084e-09
-4.28728e-09
3.12139e-09
-5.46462e-10
1.66137e-09
6.8485e-09
-2.57238e-09
-5.9375e-09
-5.43929e-09
3.09658e-09
-3.79065e-09
3.7543e-09
-5.13374e-11
8.76852e-11
-1.1189e-09
-4.20164e-09
3.04282e-10
5.01626e-09
4.54416e-09
2.7177e-09
-3.36192e-10
5.17545e-09
1.97356e-10
-5.03662e-09
2.78367e-09
-2.72554e-09
-2.88014e-10
-4.4687e-09
3.22954e-10
4.43376e-09
1.08076e-09
-4.94436e-09
2.05203e-10
-2.55076e-10
2.90014e-09
-7.38524e-10
2.51182e-10
2.49125e-09
-2.4405e-09
-5.07423e-11
3.20224e-10
5.0024e-09
-1.86308e-10
3.65412e-09
-3.55909e-09
-1.41239e-11
-8.09093e-11
-5.48932e-09
4.48422e-09
-1.67178e-10
1.17227e-09
1.43324e-10
-3.67785e-10
-4.7199e-09
2.94084e-09
-1.4272e-09
-6.24987e-09
-4.64003e-09
-5.5408e-09
5.02973e-09
5.1511e-09
-4.50566e-09
1.0812e-10
-1.09178e-09
-4.55518e-09
4.44551e-09
2.31535e-10
-1.21871e-10
-1.23141e-08
1.35124e-08
-1.19824e-09
5.58979e-09
-6.74001e-09
7.47617e-10
-2.32517e-08
1.59001e-08
-1.18573e-08
5.70561e-10
-5.24115e-09
2.30043e-11
4.64758e-09
1.25666e-08
-1.21298e-08
2.23383e-09
-2.67061e-09
-1.30434e-10
-5.08478e-09
2.16437e-10
4.99878e-09
4.22856e-09
-1.57008e-09
-4.18117e-09
1.52268e-09
4.38158e-09
-9.20285e-10
-5.43565e-09
8.28192e-10
-6.42538e-09
3.63164e-11
2.41261e-10
-4.65224e-09
5.57939e-10
-9.43094e-10
-2.95419e-09
-4.76406e-09
-6.0452e-10
4.69093e-09
-3.36817e-10
-5.11057e-09
3.392e-10
-1.41097e-10
-3.75982e-09
6.91662e-11
2.71201e-09
2.69494e-09
-1.59317e-09
3.92669e-09
-4.60373e-09
-6.45974e-11
7.41633e-10
-9.05491e-11
3.80716e-09
3.93846e-11
-4.82285e-09
4.22553e-09
4.90557e-10
1.06759e-10
2.84762e-09
-2.88973e-09
-5.48772e-09
2.13684e-09
-6.33636e-10
3.98452e-09
3.4172e-09
-3.85029e-09
1.34228e-10
2.98858e-10
5.02774e-09
-1.06585e-09
-3.96189e-09
5.43935e-09
3.71657e-09
-5.08135e-09
3.44016e-09
-2.64861e-09
1.72533e-09
-1.36913e-10
7.65952e-11
4.00504e-09
-4.46339e-09
-7.41352e-10
1.22797e-09
3.18477e-09
-3.67139e-09
-1.56754e-09
2.11232e-09
-2.53145e-09
1.98667e-09
9.97086e-10
-1.5182e-09
6.00741e-09
-5.48629e-09
2.57103e-11
-4.42907e-11
5.66834e-09
-6.04419e-09
-6.4913e-09
-1.50987e-09
4.6257e-09
1.10769e-09
-6.27623e-10
2.21111e-10
-4.65626e-11
4.53075e-10
-4.00085e-09
2.26476e-09
-1.33016e-10
-2.87636e-10
-4.71201e-09
4.87577e-11
4.95089e-09
2.02535e-09
-3.31543e-09
6.29066e-09
3.92772e-09
-2.8407e-09
2.8806e-09
-3.96762e-09
4.17307e-09
1.19999e-10
-1.52606e-09
-2.76701e-09
-2.58446e-09
1.64922e-10
-2.27972e-09
-3.91175e-09
5.79133e-09
4.00136e-10
-8.39628e-10
5.64799e-09
4.34368e-10
-5.24273e-09
1.0243e-09
-5.81994e-09
6.02909e-09
-1.23344e-09
3.25714e-09
-3.85429e-10
-5.68578e-09
-7.75632e-09
2.82722e-09
-6.08592e-10
8.82592e-12
-4.88796e-09
4.63145e-09
-4.53588e-09
-2.43489e-10
1.4792e-10
-3.05404e-10
-4.36364e-09
1.61024e-10
-4.63623e-09
-1.37292e-09
-6.82073e-09
-2.08657e-09
3.22152e-09
-5.6815e-10
4.44899e-09
3.19307e-10
-4.20015e-09
-9.38051e-11
3.55391e-09
-3.4601e-09
-4.15645e-09
4.00173e-09
5.70609e-10
-4.1589e-10
-6.91436e-10
-4.43726e-09
4.75809e-09
-4.25814e-09
-4.82385e-10
2.34867e-10
-4.49458e-10
5.39326e-09
-5.44471e-09
5.00916e-10
-6.23833e-09
4.52073e-09
-4.56059e-09
2.67121e-10
-2.27258e-10
-4.29197e-09
1.67913e-10
-6.37764e-11
4.18783e-09
-5.38219e-10
2.74396e-10
-4.10684e-09
-6.39564e-09
6.30369e-09
1.75747e-11
-7.44217e-12
2.49869e-09
-7.65631e-10
-1.53696e-11
7.79266e-10
-1.1216e-09
5.27271e-09
2.5186e-09
-6.66971e-09
1.44948e-10
-7.61497e-11
5.73366e-09
-6.68985e-11
3.73119e-11
-7.98999e-09
2.59467e-09
-4.0102e-10
5.79634e-09
3.86256e-10
-2.57007e-10
-5.18563e-10
5.35772e-10
2.32517e-09
-2.93107e-09
7.01299e-11
2.89571e-10
-2.40378e-10
-5.07335e-09
-4.73311e-09
-1.76762e-09
3.57713e-09
2.9236e-09
-7.90974e-10
3.06111e-09
-3.83354e-09
-3.08658e-09
-4.99422e-09
4.90927e-10
3.74057e-09
-3.39971e-09
3.9871e-09
-2.42123e-10
-4.13369e-09
1.27786e-10
-6.15623e-09
2.02158e-09
4.55093e-09
-4.53611e-10
2.42414e-10
-3.59374e-09
2.2392e-10
-8.66173e-11
5.26622e-09
-2.94415e-09
1.08481e-09
9.06753e-10
5.91771e-09
-9.19106e-10
-5.90536e-09
-4.52754e-09
4.85136e-09
-2.32929e-10
3.91387e-09
9.07388e-09
-4.37117e-09
-9.36156e-09
8.38284e-09
2.00628e-09
-1.7062e-08
-3.30314e-09
6.57177e-09
1.37933e-08
-4.50443e-10
6.53725e-10
-4.35973e-09
6.97769e-09
-7.07091e-09
3.02945e-09
7.28955e-09
5.84604e-09
-6.48957e-09
9.11955e-10
-1.09694e-09
4.41355e-09
-6.3041e-11
4.5298e-11
-1.25643e-09
-4.50581e-09
-4.18576e-09
2.71273e-09
4.46348e-09
-2.99044e-09
5.65278e-09
-2.491e-09
-3.43134e-11
-3.12747e-09
-5.88643e-11
-5.05928e-09
6.90724e-09
-5.28909e-09
-8.7048e-11
-1.5311e-09
3.5617e-09
-1.32126e-09
-3.4347e-09
6.32503e-09
-6.83859e-09
5.36229e-10
-2.2675e-11
2.97536e-09
-1.99812e-09
-8.2329e-09
3.73241e-09
-1.29039e-09
1.06248e-09
-7.51874e-10
3.77781e-09
-9.18216e-09
1.69075e-10
4.32024e-09
-4.44007e-09
-7.13196e-09
8.09696e-10
5.17684e-09
1.14543e-09
6.65206e-10
-4.85494e-09
-8.84627e-10
-4.66908e-09
-7.14297e-11
1.35631e-10
4.60487e-09
3.56346e-09
-6.80879e-09
1.86626e-09
5.68726e-09
3.74928e-10
-5.75564e-09
5.67748e-09
4.65385e-09
5.56946e-09
-1.29073e-09
-4.37254e-09
1.97913e-09
-2.02744e-09
4.83081e-11
4.22283e-10
-2.81211e-10
-4.10423e-09
-3.36625e-10
-2.96846e-10
2.234e-10
3.37436e-09
-3.47264e-09
9.82795e-11
-4.75978e-09
-3.97312e-11
-4.25772e-09
4.26719e-09
-1.26118e-10
1.16648e-10
-5.86292e-11
3.61254e-09
-2.83949e-10
2.3619e-09
-3.3992e-09
7.36667e-09
3.4326e-09
-6.76744e-09
-4.03182e-09
-1.25526e-09
6.86379e-09
-4.9225e-10
-1.43919e-08
2.0778e-09
2.3188e-10
-8.67168e-09
1.60121e-09
-3.06901e-10
3.20421e-10
4.59206e-09
-4.60558e-09
9.97948e-10
-7.15344e-09
1.21818e-08
-7.1035e-09
6.67727e-09
5.25143e-10
3.69717e-09
-4.17771e-09
-4.46057e-11
-2.10354e-10
-4.33122e-09
3.83838e-10
4.15773e-09
5.86027e-11
3.93798e-09
-3.84643e-09
2.84275e-11
-5.88542e-11
1.79455e-09
-2.47548e-09
6.80929e-10
-4.87064e-09
4.72624e-09
-4.65457e-09
2.37464e-10
-4.52555e-09
-1.73034e-10
-1.93886e-11
4.01422e-09
-4.19577e-09
2.00941e-10
3.85621e-09
-3.0077e-11
-3.85806e-09
-2.30911e-10
2.41731e-10
4.4734e-09
-4.02864e-09
6.66836e-10
-1.72409e-09
5.08589e-09
-1.12443e-08
1.53639e-09
-1.82406e-10
9.89028e-09
-1.04485e-09
-4.97564e-09
5.60276e-09
4.13354e-09
-2.94833e-09
-6.78797e-09
4.47017e-09
-6.87025e-09
-1.48997e-10
1.20541e-09
-5.55016e-09
-1.49132e-08
1.12831e-09
8.83344e-10
-1.17354e-09
4.33839e-09
-1.6447e-09
-8.67458e-10
2.19384e-09
3.18318e-10
-6.29178e-10
4.97115e-09
-5.38682e-09
2.83496e-09
-2.51473e-09
-3.53603e-11
-7.33772e-09
-4.56263e-09
-2.1681e-11
4.49859e-09
-2.03498e-09
5.71801e-09
8.48907e-10
-4.53194e-09
4.76166e-09
-2.01132e-09
3.04643e-09
-5.79677e-09
-5.79967e-09
-1.14e-08
9.06502e-09
1.4795e-09
4.80861e-09
-7.3079e-09
2.81717e-09
-2.91505e-10
-1.75687e-09
-4.76041e-09
-3.65504e-09
-1.06734e-08
5.95825e-09
1.90907e-10
4.35142e-09
-9.68199e-11
7.40103e-11
-8.98624e-12
-3.40817e-09
3.24614e-09
-1.23439e-10
2.85473e-10
1.15779e-08
3.76978e-10
-9.49278e-09
-2.46214e-09
3.46995e-09
-4.58844e-09
-3.13685e-10
-8.82761e-10
-7.01906e-09
5.93921e-10
-6.92767e-09
-2.72636e-10
-5.13654e-10
-3.2938e-10
7.23941e-10
1.1147e-10
3.11977e-09
-4.41839e-09
3.93914e-09
-3.80979e-09
3.37049e-09
-3.39424e-09
1.31869e-09
-1.18709e-08
-6.92027e-10
-5.42967e-09
2.69597e-10
3.90481e-09
3.38512e-09
-3.96057e-09
4.96131e-09
4.70644e-09
3.83329e-09
-3.79994e-10
-4.93367e-09
4.97747e-09
-4.72594e-09
6.85587e-09
5.62526e-09
-5.80491e-09
5.86691e-09
4.53806e-09
-4.81903e-09
1.76047e-09
-6.05836e-10
4.12135e-09
4.40904e-10
-1.22044e-09
4.45974e-09
-5.81689e-09
4.53259e-09
9.13512e-11
3.36502e-09
-3.45581e-09
9.07854e-11
-5.07469e-09
5.05652e-09
2.06638e-10
-1.88469e-10
4.32922e-09
-4.50731e-09
3.47162e-10
-4.33535e-09
-1.01121e-08
-2.51738e-09
6.25581e-10
4.66731e-09
-4.45667e-09
-2.4718e-09
2.26117e-09
9.25359e-11
-5.7531e-09
5.34722e-09
3.13343e-10
2.04307e-10
-6.63531e-09
4.44392e-09
2.53897e-09
-5.14314e-09
7.32685e-10
-3.34542e-09
2.81123e-09
-6.85938e-09
-8.11573e-09
1.88623e-10
8.26071e-09
-3.3361e-10
9.52198e-11
-4.86621e-09
1.12077e-11
1.33364e-08
4.27432e-09
-4.28345e-09
-1.89841e-10
-4.19693e-09
4.26164e-09
1.2513e-10
4.75644e-09
4.76501e-10
-5.53984e-09
-5.43253e-09
-4.08772e-10
-4.94568e-09
-8.83785e-10
6.30561e-09
-4.96309e-09
4.93778e-09
-2.45791e-10
2.71094e-10
-9.67954e-10
4.4598e-09
1.04622e-09
-2.13264e-09
-6.07255e-09
5.07428e-09
3.13091e-09
-5.43363e-09
2.87137e-09
4.54619e-09
-1.98393e-09
-4.9901e-09
4.81729e-09
-1.89383e-10
-3.30652e-09
-7.88982e-09
3.71028e-09
-2.06894e-09
6.92606e-09
1.74994e-09
-3.97699e-11
-1.05626e-11
5.07277e-09
-4.08514e-10
-5.29343e-09
-3.90655e-10
4.56432e-10
4.31757e-09
-4.38335e-09
7.15292e-09
-5.8544e-09
7.77535e-09
-1.46043e-10
-7.95536e-09
1.9601e-10
-3.40811e-10
-4.11334e-09
-3.53314e-10
4.31804e-09
-4.35538e-09
1.05081e-08
-8.04196e-09
-2.46611e-09
-7.99875e-10
4.51124e-09
-4.19375e-09
4.07076e-09
-5.55833e-11
4.52239e-09
-4.51291e-09
4.99728e-11
-5.94497e-11
-1.31031e-10
2.02528e-10
8.64983e-10
-3.87417e-09
-7.43587e-10
3.75278e-09
3.02025e-09
1.63538e-09
4.38343e-09
-3.49128e-09
9.36907e-09
-1.14959e-08
-3.13304e-09
5.2599e-09
-8.50681e-10
-8.90342e-09
4.09519e-09
-3.6519e-09
3.26207e-10
4.91174e-09
2.58419e-10
-2.09921e-09
7.88517e-09
-9.86184e-09
4.05646e-10
4.57288e-09
1.23381e-13
-7.48388e-09
-2.87723e-09
4.51382e-09
-4.50155e-11
-5.23871e-09
2.49154e-10
4.40576e-09
3.88441e-09
-2.41418e-09
-5.87599e-09
-3.36968e-10
4.46651e-10
-5.25952e-10
8.83061e-10
4.38945e-09
-4.74656e-09
-2.41134e-09
-6.18842e-09
-4.87235e-09
2.52358e-10
-1.5936e-10
4.77936e-09
4.39596e-09
-1.69618e-09
-2.96202e-09
2.6224e-10
-4.8093e-09
-3.79724e-09
4.79996e-09
-4.3218e-09
3.39385e-10
4.38599e-09
-4.03573e-10
3.09656e-09
7.07334e-10
-4.12359e-09
3.197e-10
4.77164e-09
-3.24369e-09
3.34728e-09
-4.87523e-09
-1.82491e-08
1.9547e-08
-1.29784e-09
3.33014e-09
-3.92073e-09
3.37392e-09
-2.78333e-09
8.23072e-11
-3.04287e-11
-4.24091e-09
-4.7611e-10
3.95221e-10
3.16585e-09
2.46475e-09
-2.9129e-09
-8.35369e-11
-4.67574e-09
2.51973e-10
5.02162e-09
-6.42969e-09
2.1384e-09
-7.30334e-10
-8.00928e-09
-3.14447e-09
5.87699e-09
5.27676e-09
-8.36948e-09
-5.77666e-09
6.13686e-09
-8.05503e-09
-6.96854e-09
6.65409e-09
2.5278e-09
-5.02976e-09
-1.77735e-09
3.7797e-10
-8.36947e-10
-8.25424e-09
7.08522e-09
4.96628e-09
2.61073e-10
1.42883e-09
3.68533e-09
-5.09034e-09
3.19046e-09
8.13229e-10
1.08665e-09
-1.18815e-09
-4.09357e-09
2.04105e-09
3.24068e-09
-3.52264e-09
4.93861e-09
1.27683e-10
3.98677e-09
-4.36915e-11
-2.45474e-10
4.38787e-09
4.31362e-09
-4.27109e-09
4.17275e-09
-1.32571e-10
-2.3296e-10
1.00741e-10
6.78317e-09
-1.69126e-11
1.53102e-10
9.34113e-10
4.75882e-09
-4.01433e-11
8.10651e-09
-8.73981e-09
-9.94214e-09
-1.31806e-09
-4.12066e-09
2.386e-09
-4.5151e-09
-4.01663e-10
4.1679e-09
-8.24827e-10
-3.99946e-09
5.83373e-10
2.37784e-09
-2.66521e-09
2.72127e-10
-2.05681e-10
-4.40859e-09
2.93061e-10
4.4538e-09
-3.3828e-10
-2.1883e-09
1.96527e-09
3.66319e-09
5.76111e-10
-1.17764e-08
-2.9562e-10
8.0294e-09
3.36895e-09
-3.72843e-09
5.02679e-09
1.04285e-09
3.66611e-09
-1.95144e-10
-3.25747e-09
3.30911e-09
-5.16453e-11
-2.98806e-09
2.99927e-09
1.37697e-10
-1.1169e-09
1.1874e-09
-2.0819e-10
-3.31096e-10
-4.39242e-09
3.14936e-10
1.7945e-08
2.85334e-09
-2.08491e-09
-4.48009e-09
2.37998e-10
4.53516e-09
4.29849e-09
5.45143e-10
3.93164e-09
8.40157e-12
-1.50672e-09
-5.02653e-09
9.74257e-10
5.55899e-09
4.00236e-10
4.39027e-10
-3.02898e-09
2.18972e-09
5.17508e-09
3.68912e-09
-4.42028e-09
6.87413e-09
-5.0809e-09
2.05479e-10
4.11524e-09
-4.0003e-09
-3.42478e-09
-7.91527e-09
7.82637e-09
4.37733e-09
8.18078e-11
-4.23522e-09
-2.38804e-09
1.46153e-08
2.88513e-09
6.24596e-10
4.24352e-09
-4.41169e-09
4.79315e-09
3.16271e-10
-5.10836e-09
-4.44266e-09
3.43529e-11
-2.07243e-09
-1.22949e-08
2.16405e-09
1.22033e-08
-1.82753e-09
5.50348e-09
-4.20616e-09
5.30204e-10
6.2309e-09
-5.92557e-09
-3.05324e-10
-6.32829e-09
5.65699e-09
-5.51092e-10
1.2224e-09
6.91224e-09
-4.15101e-09
-6.28387e-09
-1.0433e-08
4.42677e-09
-3.36588e-09
-7.6894e-09
1.88402e-10
-4.66997e-09
-1.0865e-10
4.59022e-09
-1.08014e-09
-3.46618e-09
7.11966e-09
1.55788e-10
-5.41141e-09
4.10517e-10
-3.27021e-09
3.9857e-09
1.9007e-10
-3.98379e-09
-1.91985e-10
6.16135e-09
-1.41698e-09
-3.97423e-09
-7.70147e-10
5.21276e-09
-5.61628e-09
-1.72912e-09
-4.27315e-09
-4.67804e-11
1.41772e-11
3.81108e-09
-1.45156e-09
-4.04027e-09
1.68074e-09
1.07008e-09
-6.92433e-09
-6.53475e-09
8.01727e-09
1.739e-09
-4.20277e-09
4.34977e-09
-6.18781e-10
4.71782e-10
3.95713e-09
-3.94469e-09
2.16872e-10
-2.2932e-10
2.32863e-09
3.98987e-09
-1.57151e-10
2.90579e-10
4.23526e-09
1.12388e-10
-4.29881e-09
4.02203e-09
9.00243e-09
-3.10469e-09
1.20472e-08
-4.73732e-09
-2.62634e-09
-8.48243e-10
2.92301e-09
5.51574e-10
-6.29897e-09
3.9526e-09
1.5554e-09
2.69664e-10
2.40687e-09
-5.4962e-10
-2.12691e-09
3.43952e-09
-7.19832e-09
-5.19603e-09
5.4241e-09
-1.9217e-10
2.40873e-10
-5.47281e-09
-4.19185e-10
5.05164e-09
-5.04097e-09
-3.22701e-09
-1.30816e-09
-4.54456e-11
3.94896e-11
6.81918e-09
-5.88279e-10
5.46656e-09
-3.93769e-09
-8.62035e-10
1.59905e-10
4.12551e-09
2.52516e-09
-3.74208e-09
4.64153e-09
-5.539e-09
4.19482e-09
-4.21327e-09
5.0924e-09
3.58748e-10
-4.4548e-09
1.1267e-10
-1.9375e-10
4.17849e-09
-4.02699e-09
3.04358e-10
-4.55851e-10
-9.18166e-09
1.68905e-10
4.02033e-09
-4.02533e-09
-1.63905e-10
-4.21871e-09
3.83617e-09
4.74398e-10
-9.18532e-11
-4.48944e-09
4.07588e-09
4.20182e-09
2.56573e-10
-2.06542e-12
-1.67837e-11
4.25024e-09
4.40611e-09
-4.35207e-09
2.85343e-10
-2.77416e-09
-1.84697e-09
4.29729e-11
-1.52472e-08
-1.0248e-08
4.30242e-09
1.32015e-09
-1.19646e-09
-4.42611e-09
-4.62285e-09
4.92225e-09
-8.16201e-09
4.80022e-09
-4.89836e-09
-3.84593e-10
4.82733e-10
-2.40173e-10
-5.02943e-09
5.04214e-09
-4.26227e-10
-9.98912e-09
-4.85038e-09
1.44913e-09
4.61099e-09
-1.20973e-09
4.09253e-10
-3.61304e-09
-2.11197e-10
-4.03945e-09
4.05043e-09
2.0021e-10
-3.58744e-09
-2.90978e-09
-5.3946e-09
5.09123e-10
-3.99649e-09
1.58195e-09
-3.68985e-10
2.78353e-09
-2.56369e-10
5.53851e-11
-5.41808e-09
-3.74262e-09
-8.08998e-10
4.28659e-09
-6.6972e-09
-4.09476e-09
4.45824e-10
2.75995e-09
8.8898e-10
-1.34095e-08
2.20942e-09
6.868e-09
4.33212e-09
1.64059e-08
-9.66189e-10
1.04426e-09
5.96296e-11
6.47577e-11
4.78707e-10
-1.85027e-10
-2.9368e-10
4.63377e-09
-2.24194e-11
1.88866e-10
-2.83481e-09
-1.25663e-10
-4.37449e-09
-6.37789e-11
-4.34092e-09
6.33734e-11
-4.8511e-09
1.07279e-10
-5.55155e-11
6.24193e-09
-1.32769e-09
1.78153e-10
-1.3927e-09
-4.22246e-09
3.71237e-10
5.24393e-09
5.05578e-09
2.87883e-09
3.55278e-10
-4.39433e-09
1.55594e-10
-2.03827e-10
8.59852e-10
-8.11619e-10
2.68341e-10
-4.31818e-09
4.21605e-09
-1.66213e-10
8.31998e-10
4.09956e-10
-1.24195e-09
-7.20468e-10
1.66062e-09
-4.32341e-09
4.25231e-09
-1.58953e-09
1.47038e-10
4.15555e-09
-1.00768e-10
2.98523e-09
6.90989e-09
4.68796e-09
-4.98083e-09
6.09138e-10
2.91805e-10
-3.3203e-10
3.24178e-10
-2.61586e-10
4.5332e-09
-4.59579e-09
4.15177e-09
-3.35717e-09
-6.20147e-10
1.41138e-09
1.52159e-09
4.17068e-09
-5.39084e-09
-3.01429e-10
5.71514e-09