/*--------------------------------*- C++ -*----------------------------------*\
  =========                 |
  \\      /  F ield         | OpenFOAM: The Open Source CFD Toolbox
   \\    /   O peration     | Website:  https://openfoam.org
    \\  /    A nd           | Version:  8
     \\/     M anipulation  |
\*---------------------------------------------------------------------------*/
FoamFile
{
    version     2.0;
    format      ascii;
    class       volVectorField;
    location    "4.2";
    object      U;
}
// * * * * * * * * * * * * * * * * * * * * * * * * * * * * * * * * * * * * * //

dimensions      [0 1 -1 0 0 0 0];

internalField   nonuniform List<vector> 
4280
(
(3.23454e-05 1.541e-05 -8.46008e-23)
(0.000645718 0.00109515 2.93139e-22)
(1.84507e-05 3.23958e-05 -1.22306e-21)
(0.000309191 0.000400567 -8.40388e-22)
(0.000565703 0.000970585 4.54743e-22)
(0.000567613 0.00103961 0)
(0.0005828 0.000939011 0)
(0.000653693 0.0011116 2.62706e-22)
(0.000389133 0.000689704 -5.52751e-22)
(0.000563704 0.00105436 1.65946e-22)
(3.96144e-05 1.47771e-07 5.4349e-24)
(0.000638806 0.00121384 -4.38338e-22)
(3.65458e-05 8.29448e-05 -1.25304e-21)
(0.000590544 0.000456255 -1.61454e-21)
(0.000404235 0.000706667 -4.51972e-22)
(0.000655448 0.00111985 -2.50237e-22)
(0.000474421 0.000859376 5.40271e-22)
(0.000314716 0.00101401 -7.73162e-22)
(0.0001856 0.000763074 1.97985e-22)
(0.000652323 0.0011119 0)
(3.6187e-05 -2.49979e-06 -4.85323e-25)
(0.000659281 0.00120772 0)
(4.50322e-05 -6.9484e-05 6.94127e-22)
(0.000728041 0.00128868 0)
(0.000584409 0.0010509 -7.01739e-22)
(0.000526795 0.000890522 -1.08232e-22)
(0.000663251 0.00120575 0)
(0.000577002 0.00103776 -4.31743e-22)
(0.000592247 0.00103139 -3.20406e-22)
(0.00044197 0.000941137 3.67102e-22)
(0.000574506 0.000968707 -9.39996e-22)
(0.000424886 0.00107832 0)
(0.000516213 0.000942335 -5.7255e-22)
(0.000501668 0.000923295 -1.11375e-21)
(3.42309e-05 0.000317778 9.95538e-22)
(0.000575539 0.00104623 7.5032e-22)
(0.000757322 0.00126806 -1.67289e-23)
(0.000436678 0.000839548 7.93295e-22)
(0.000677757 0.00126807 -1.91126e-22)
(0.000585345 0.00103499 6.89497e-24)
(0.000667339 0.000587442 2.92612e-22)
(0.000633572 0.00124102 -5.6612e-22)
(0.000558662 0.000797487 0)
(0.000586601 0.000914179 0)
(0.000504639 0.000946302 -2.20255e-22)
(0.000521398 0.000957966 0)
(0.000909328 0.00110379 -2.31252e-22)
(0.000632238 0.00113041 -2.62467e-22)
(0.000548161 0.000951549 1.09198e-23)
(0.000881395 0.00142019 4.90865e-22)
(0.000485971 0.000865776 0)
(0.000655911 0.00111765 0)
(0.000576169 0.00102032 -3.18296e-22)
(8.54828e-05 0.000678785 -9.46098e-22)
(0.000172975 0.00061093 -4.0039e-22)
(0.000655794 0.0011185 2.38258e-22)
(9.35497e-05 -0.000436594 -3.11403e-22)
(0.00071149 0.00128538 -5.15805e-22)
(0.000537693 0.000925334 -7.2813e-24)
(0.000633481 0.00113102 2.59139e-22)
(0.000584867 0.00103007 5.89618e-24)
(0.000635053 0.00112913 4.06961e-22)
(0.000677563 0.00117038 1.09895e-21)
(0.000572918 0.00103972 -1.08461e-21)
(0.000571895 0.00102435 9.19598e-22)
(0.000680674 0.00120144 0)
(0.000802013 0.000821343 0)
(0.000174514 0.000584284 -5.7099e-22)
(0.000583617 0.00103228 -2.28151e-22)
(0.000638161 0.00113072 -2.40751e-22)
(0.00054287 0.000936063 -1.45187e-22)
(0.000591512 0.00104051 -3.25948e-22)
(0.000749622 0.00126864 -3.17598e-22)
(0.000723854 0.00127417 5.78394e-22)
(0.000840298 0.000452689 2.22692e-25)
(0.00019115 0.000736098 -1.05421e-21)
(0.000422472 0.00076739 0)
(0.000528548 0.000940465 0)
(0.000654828 0.00111305 7.3118e-24)
(0.000214032 0.000834942 -2.80779e-22)
(0.000532785 0.00103748 6.71784e-23)
(0.000676962 0.00120677 7.7784e-23)
(0.000357925 3.6564e-05 -2.09721e-21)
(0.000556686 0.000973279 -6.20677e-24)
(0.000553571 0.000975971 9.44794e-22)
(0.000911085 0.000832447 -1.09385e-21)
(0.000654579 0.00122075 1.85036e-22)
(0.000525622 0.000901255 1.36948e-22)
(0.000230034 0.000866596 -5.35951e-22)
(0.000268664 0.000909222 0)
(0.000688393 0.00120633 3.38639e-22)
(0.000324613 0.000984724 1.85932e-21)
(0.000449487 0.000907565 2.19634e-23)
(0.000523747 0.000914998 -2.13944e-22)
(0.000505043 0.000918386 0)
(0.000549835 0.000909919 4.15736e-22)
(0.000794869 0.00136098 0)
(0.000583412 0.00103257 -2.49411e-22)
(0.000693623 0.00114183 4.52959e-24)
(0.000542644 0.000932845 -9.62658e-22)
(0.000585669 0.00103236 -5.79818e-22)
(0.000644369 0.00123026 8.12804e-24)
(0.000726013 0.00130415 0)
(0.000543526 0.000933235 -3.91033e-22)
(0.000636383 0.00113055 2.35568e-22)
(0.000584408 0.00103245 -6.12543e-24)
(0.000542931 0.000963248 -5.88815e-22)
(0.000628387 0.00111702 -1.03113e-21)
(0.000425555 0.000726438 0)
(0.000382405 0.000692335 0)
(0.000279134 0.000732935 6.45696e-22)
(0.000548221 0.000970029 6.59494e-22)
(0.000554321 0.000975275 -9.52057e-22)
(0.000486771 0.000801847 -6.53403e-22)
(4.37271e-05 -2.39255e-06 -5.48804e-24)
(0.000544172 0.000925617 0)
(9.68458e-05 -0.000201899 -1.33069e-21)
(0.000547444 0.000987492 0)
(0.000551734 0.000722003 7.58985e-22)
(0.000561317 0.000437046 0)
(0.000407508 0.000897265 -3.65581e-22)
(0.000524974 0.000935939 1.7301e-22)
(0.000729229 0.00128947 4.20573e-22)
(0.000545179 0.000929637 3.48056e-22)
(0.000528021 0.00094512 0)
(0.000471308 0.000975934 5.28735e-22)
(0.000369946 0.000693377 0)
(0.00051127 0.000973368 -2.72279e-22)
(2.39639e-05 0.000235413 1.72814e-22)
(0.000804703 0.00137464 -4.75052e-23)
(0.000326228 0.000600229 -4.65333e-22)
(0.000613875 0.001103 2.86604e-22)
(0.000619515 0.00113818 1.72122e-22)
(0.000591077 0.00102074 -3.78326e-22)
(0.000540037 0.000976378 1.35664e-21)
(0.000131143 0.00115797 0)
(0.000729035 0.00129921 0)
(0.000807658 0.00135707 1.13582e-24)
(0.00032844 0.000589516 -2.55976e-22)
(0.000687082 0.00120839 -6.62192e-24)
(0.000550681 0.00096863 -1.02956e-23)
(0.000491951 0.00088576 0)
(0.000253002 0.000457712 1.88915e-22)
(0.000574692 0.00103793 0)
(0.000553569 0.000974086 -5.13435e-22)
(0.000649678 0.00110083 1.64353e-21)
(0.000504401 0.00013096 6.20938e-22)
(0.000588413 0.00110233 5.01386e-24)
(0.000423169 0.000610971 0)
(0.000553126 0.000971032 0)
(0.000321385 0.000870097 0)
(0.00164055 0.00014527 0)
(0.000563752 0.00100668 -3.87193e-22)
(0.000491096 0.00057613 0)
(0.000363966 0.00113835 -8.18141e-24)
(0.000685558 0.00120956 -1.14489e-23)
(0.000645853 0.000794613 0)
(0.000572552 0.000994735 3.79198e-22)
(0.000521136 0.000913565 5.44197e-22)
(0.000319493 0.00057704 0)
(0.000650642 0.00108822 0)
(0.000635068 0.00121268 1.07638e-21)
(0.000494376 0.000116456 9.46807e-22)
(0.000427356 0.00102442 -1.20247e-21)
(0.000603563 0.00127733 0)
(0.000666667 0.000945547 1.51323e-23)
(0.000694934 0.0012028 2.17636e-22)
(0.000605959 0.00102866 9.07247e-24)
(0.000656355 0.00111408 2.79296e-22)
(0.000719358 0.00127186 4.3563e-23)
(0.000569836 0.000941225 0)
(0.000545548 0.000994414 1.29815e-22)
(0.000554842 0.000973933 5.74015e-24)
(0.000237915 0.00160007 -5.27728e-23)
(0.000995835 0.000419422 -1.03128e-21)
(0.000532591 0.00104241 7.92938e-24)
(0.000907071 0.000394378 0)
(0.000290649 0.000682953 9.53067e-22)
(0.000546515 0.000992898 -9.05038e-23)
(0.000603748 0.00102833 -2.8893e-22)
(0.000596535 0.000694804 -7.76804e-22)
(0.000786782 0.000740555 4.19369e-22)
(0.000150591 0.000731361 -7.89166e-22)
(0.000778562 0.00136103 -5.61458e-22)
(0.000950369 0.00152725 5.66296e-22)
(0.00055744 0.00099843 0)
(0.000532773 0.000968766 1.19002e-23)
(0.000809968 7.54687e-05 -1.08768e-22)
(0.000716286 0.00128441 3.80828e-22)
(0.000501427 0.000919416 -3.86914e-23)
(0.00020178 0.000610125 1.29171e-22)
(0.000445044 0.000955093 0)
(0.000559915 0.0009689 -1.16922e-23)
(0.000474337 0.000781922 -3.27701e-23)
(0.000538241 0.000994706 -6.54063e-23)
(0.000675841 0.00110506 -9.18774e-22)
(0.000651261 0.00108806 0)
(0.000643866 0.00108147 -5.33777e-22)
(0.00076152 0.00127025 0)
(0.000811543 0.00137274 -6.84406e-22)
(0.000483301 0.0006998 -4.41968e-24)
(0.000899132 0.000923497 -7.88541e-22)
(0.000526354 0.000922825 0)
(0.000599162 0.0011028 0)
(0.000621826 0.00109253 -7.30235e-22)
(0.000674469 0.00120385 -2.48125e-22)
(0.000546281 0.000930589 1.07747e-21)
(0.000664228 0.0012015 -3.18242e-22)
(0.000543559 0.000944542 -4.7497e-22)
(0.000688781 0.00119493 4.33023e-22)
(0.000689695 0.00118693 -9.27201e-22)
(0.000284255 0.000610158 -7.58065e-23)
(0.000409943 0.000739363 6.42578e-22)
(0.000427191 0.000574947 1.51036e-21)
(0.000578163 0.000998355 0)
(0.000568694 0.00107163 6.41482e-22)
(0.00101499 0.000163547 -8.47645e-22)
(0.000687975 0.00112952 -1.72307e-22)
(0.000673533 0.00121118 2.60331e-22)
(0.000322994 0.000760069 6.76117e-22)
(0.000557978 0.000908161 6.19402e-23)
(3.10235e-05 -1.42853e-05 -3.20519e-24)
(0.000527003 0.000948447 1.33942e-21)
(0.000854674 0.000862708 3.59216e-22)
(0.000345843 0.000771238 -6.49996e-22)
(0.0005519 0.000732804 0)
(0.00101331 0.000408838 7.84092e-22)
(0.000404199 0.000724218 -4.27238e-22)
(0.000559997 0.000981125 0)
(0.000501105 0.000980395 -7.01207e-22)
(0.000964455 5.22872e-05 3.65873e-22)
(0.000559536 0.00097094 -2.79734e-22)
(0.000876732 4.00402e-05 -1.96316e-22)
(0.000452478 0.00084512 -5.4575e-22)
(0.000557188 0.000963669 -9.94275e-22)
(0.000502855 0.000234542 -6.77984e-22)
(0.000524719 0.000962277 -6.76511e-22)
(0.000686903 0.00115796 -3.89212e-22)
(0.000339635 0.000860239 -1.03404e-21)
(0.000741557 0.0012619 -1.37633e-22)
(0.000638312 0.0011304 -2.07019e-22)
(0.000575467 0.000993462 5.30205e-22)
(0.000697212 0.00120946 -1.63777e-22)
(0.00047939 0.00103441 -1.08274e-21)
(0.000765712 0.00126165 -2.35485e-22)
(0.000607256 0.00119635 0)
(0.000528577 0.000894888 2.14844e-23)
(0.000782669 0.00136991 2.23458e-23)
(0.000566099 0.00101038 2.11785e-22)
(0.000526154 0.000936458 1.72891e-22)
(0.00048975 0.00118779 6.60662e-22)
(0.000541085 0.000942346 0)
(0.000599169 0.0010272 6.72177e-22)
(0.000526832 0.000893292 -2.3735e-22)
(0.000737506 0.00144845 4.53631e-23)
(0.000578212 0.0010437 -1.20315e-23)
(0.000473052 0.000512437 1.16419e-21)
(0.000551948 0.000954753 0)
(0.00061485 0.000460714 7.66098e-22)
(0.000828417 0.00112428 1.93891e-21)
(0.000646857 0.00118713 0)
(0.000377784 0.000241488 -7.35163e-22)
(3.87992e-05 0.000621761 0)
(0.000531947 0.000925138 1.29428e-22)
(0.0011147 0.000355056 -1.60463e-21)
(0.000602485 0.00102591 6.39805e-24)
(0.000515199 0.000892871 5.04698e-22)
(0.000760964 0.0012879 -4.58738e-22)
(0.000518338 0.000950561 0)
(0.000948911 0.000865422 1.16236e-21)
(0.000386223 0.00126496 3.42463e-23)
(0.000346853 0.000603766 3.62845e-22)
(0.000689748 0.00120779 -2.66529e-22)
(0.000559893 0.000944234 9.08213e-24)
(0.000570815 0.000949645 -4.78488e-22)
(0.000690018 0.00120979 -2.81451e-22)
(0.000712703 0.000591457 1.43055e-23)
(0.000638432 0.00113078 -4.5273e-22)
(0.000728142 0.0012633 -4.34674e-22)
(0.000741083 0.000337982 1.63545e-21)
(0.000721155 0.0012787 -1.47565e-21)
(0.000521223 0.000963054 -1.99631e-22)
(0.000535837 0.000967126 -2.70617e-22)
(0.000399748 0.000248436 0)
(0.0004136 0.000679376 9.6281e-22)
(2.16797e-05 -1.24256e-05 2.69564e-24)
(0.00102796 0.00137252 -1.52906e-21)
(0.000789593 0.00137656 0)
(0.000628213 0.00108521 1.67886e-22)
(0.000553066 0.000992622 2.86918e-22)
(0.000559346 0.00107148 -2.57497e-22)
(0.000646712 0.00147161 -4.31323e-23)
(0.00043455 0.000874632 0)
(0.000892064 0.00135421 -7.42619e-22)
(0.000395847 0.000653201 5.36762e-22)
(0.000410078 0.00080435 2.5278e-22)
(0.000412866 0.000936548 -5.3156e-23)
(0.00067899 0.00115218 1.1497e-21)
(0.000579386 0.00102892 2.10385e-22)
(0.000406108 0.000776152 2.08893e-22)
(0.000405073 0.000898904 1.17837e-21)
(0.000917532 0.000115158 -1.2368e-21)
(0.000743039 0.00127194 -1.19472e-21)
(0.000464715 0.000290335 4.9369e-22)
(0.000661283 0.00121668 3.1926e-23)
(0.000679374 0.00120046 2.44592e-22)
(0.000992029 6.01583e-05 0)
(0.00093996 0.000106592 3.0515e-23)
(0.000818067 0.00137984 1.59439e-22)
(0.000568361 0.00110609 1.17689e-22)
(0.000558022 0.000967374 -5.81371e-25)
(0.000689524 0.000103386 -2.05634e-21)
(0.00058131 0.00102554 3.12749e-22)
(0.000436964 0.000942359 1.07677e-21)
(0.000573673 0.00092583 6.7171e-22)
(0.000707737 0.00130159 -6.98438e-23)
(1.68004e-05 -2.10998e-05 1.00918e-23)
(0.000797491 0.000902289 5.32282e-22)
(0.00067752 0.00121374 -1.88739e-22)
(0.000562426 0.000996612 -6.75082e-23)
(0.000206485 0.000803264 1.22722e-24)
(0.00105982 0.000154575 0)
(0.000202612 0.000936083 1.54408e-23)
(0.000563739 0.000936513 0)
(0.000508412 0.000900068 2.08811e-22)
(0.0010122 0.000190446 0)
(0.000451192 0.000871917 -1.79699e-22)
(0.000273238 0.00073134 -9.26501e-22)
(0.000595905 0.000919497 5.01434e-22)
(0.000607716 0.00103603 6.6312e-22)
(0.000261965 0.000335422 2.37621e-21)
(0.000643658 0.00120661 -7.09864e-23)
(0.000558782 0.00100208 -6.84151e-22)
(0.000482706 0.000932142 7.76225e-22)
(0.000515091 0.000992519 4.61034e-22)
(0.000573316 0.0011211 0)
(0.000391978 0.000650724 -2.62623e-22)
(0.000639673 0.0010945 5.1371e-22)
(0.000811109 0.00136722 1.0264e-21)
(0.000688886 0.00121682 0)
(0.000106322 -8.7915e-05 1.62876e-21)
(0.000347335 0.000604388 0)
(0.000670118 0.00117027 1.22559e-21)
(0.000549702 0.000918921 4.83265e-22)
(0.000542053 0.00103413 7.82868e-23)
(0.000688609 0.00122165 -3.29357e-22)
(0.000287108 0.000877015 4.65882e-22)
(0.00032751 0.000702007 -2.92468e-22)
(0.000560499 0.00103433 0)
(0.000674536 0.00110806 2.10348e-22)
(2.70519e-05 0.000816676 0)
(0.000250954 0.000801284 -4.15214e-22)
(0.00138301 0.000248859 0)
(0.000655888 0.00126021 -2.71669e-22)
(0.000749725 0.000101238 4.32652e-23)
(0.000682033 0.00116012 6.13043e-22)
(0.000702797 0.00121355 -1.737e-22)
(0.000286394 0.00084288 5.28725e-22)
(0.000723349 0.00130598 -1.80986e-22)
(0.000678275 0.00111136 -2.09492e-22)
(4.3848e-05 0.000184283 5.67257e-22)
(0.000538395 0.00105178 6.51901e-24)
(0.000699607 0.00113104 -5.64043e-22)
(0.000556804 0.000960411 -3.63374e-22)
(0.000630473 0.00113251 0)
(0.000567502 0.00107081 0)
(0.000529236 0.000913715 -1.03507e-21)
(0.00051295 0.000966492 0)
(0.000403052 0.000647314 -8.19003e-22)
(0.000559506 0.00100055 -2.23949e-22)
(0.000548592 0.00103239 -3.96845e-23)
(0.000538511 0.000930524 3.51888e-22)
(0.000783083 0.0013556 -6.92931e-23)
(0.000339865 0.000645093 9.90839e-22)
(0.000552989 0.000972508 0)
(0.000477609 0.00101913 -3.57487e-22)
(0.000554932 0.000909985 4.06666e-23)
(0.00013561 0.000162491 0)
(0.000563449 0.00114529 9.09693e-23)
(0.000553296 0.000995373 3.60753e-24)
(0.000733431 3.8781e-05 4.62932e-24)
(0.000326802 0.000902495 5.79386e-24)
(3.41601e-05 2.94515e-08 1.07082e-21)
(0.000311999 0.000932475 4.33471e-22)
(0.000591716 0.00115718 -2.98518e-22)
(0.000794793 0.00138417 -8.32942e-22)
(0.000456997 0.000845439 -7.73265e-22)
(0.00058375 0.000994208 -4.79353e-23)
(0.000478246 0.000960079 0)
(0.000985437 0.000780809 6.56611e-22)
(-0.00014909 0.0010656 -5.03408e-22)
(0.000594279 0.00122853 0)
(0.000308595 0.000877623 -1.07418e-21)
(0.000478365 0.000523988 8.12897e-22)
(0.000551999 0.0010077 0)
(0.000675079 0.0011121 4.60154e-22)
(0.00060533 0.00110554 -7.50647e-23)
(0.000312836 0.000347991 -2.50811e-21)
(0.000414404 0.000421521 -1.72079e-22)
(0.000553196 0.000985798 -4.26625e-22)
(0.000442461 0.000904773 4.25747e-22)
(0.000555762 0.000987333 -2.43405e-22)
(0.000612852 0.00110285 -1.86987e-22)
(0.00056499 0.00103998 0)
(0.000776531 0.00126904 -5.647e-24)
(0.000323028 0.000935425 0)
(0.000614564 0.00110493 4.56405e-24)
(0.000661105 0.00109938 2.03788e-22)
(0.000552902 0.000998564 -3.26106e-22)
(0.000786258 0.00135251 5.55512e-22)
(0.000350895 0.000608829 2.57474e-22)
(4.54576e-05 -4.63661e-07 4.06971e-23)
(0.000487787 0.00112503 -6.18656e-22)
(0.000566874 0.000938462 4.47301e-22)
(0.000767111 0.00127127 4.70562e-24)
(0.000738292 0.00158816 0)
(2.03632e-05 -3.16344e-05 -6.8647e-22)
(0.000523987 0.000889908 -9.53534e-22)
(0.000636106 0.00116924 0)
(0.000567856 0.000824734 -5.24158e-22)
(0.00047107 0.000926575 0)
(0.00034823 0.000840264 8.95724e-22)
(0.000650664 0.00113253 4.5859e-22)
(0.000851982 0.00110503 -5.35916e-22)
(0.000599822 0.00102215 0)
(0.000802185 0.00136867 7.93551e-22)
(0.000677738 0.0011201 2.1429e-22)
(0.000507534 0.000954486 3.35547e-22)
(0.00055638 0.000972298 -5.81519e-22)
(0.00052299 0.00100621 -2.66895e-22)
(0.000768885 0.00128797 2.3243e-22)
(0.000241413 0.0009354 -1.73779e-21)
(0.000255569 0.000851758 -4.90692e-22)
(0.000465273 0.000875879 -5.06569e-22)
(0.000727863 0.000113614 -3.9951e-22)
(0.000640288 0.000484806 2.0325e-21)
(0.000908568 0.000217022 -1.75723e-22)
(0.000556557 0.000988201 -7.02315e-24)
(0.000379936 0.000549466 -8.82951e-22)
(0.000851751 0.000478756 1.51945e-21)
(0.000701225 0.00121054 -4.8752e-22)
(0.000535041 0.000914993 0)
(0.000544412 0.000971046 7.85626e-22)
(0.000290211 0.000828054 0)
(0.000690598 0.00120294 -3.91221e-22)
(0.000673196 0.00117774 -4.84492e-24)
(0.000650239 0.000634528 -1.09246e-21)
(0.000461567 0.000891809 5.84245e-22)
(0.000653306 0.000717697 -9.99255e-22)
(0.000471928 0.000942679 -3.77928e-22)
(0.000404217 0.000492111 2.46681e-22)
(0.000626129 0.000658327 7.76122e-22)
(0.000826142 0.00133544 2.05774e-23)
(0.000584636 0.000964748 1.78077e-23)
(0.000535454 0.00117069 0)
(0.000381153 0.000927868 7.35806e-22)
(0.000620007 0.00111682 -1.28826e-21)
(0.000389774 0.000970868 -8.37621e-22)
(0.00064409 0.00071925 1.18393e-21)
(0.000213801 0.000470314 5.06463e-22)
(0.000602835 0.00130388 -3.48391e-22)
(0.000417663 0.000220848 0)
(0.000610798 0.000857068 -3.11854e-21)
(2.14443e-05 2.74446e-05 -5.13924e-22)
(0.000492178 0.000807099 -1.80835e-22)
(0.000619659 0.00112224 -1.89955e-21)
(0.000534782 0.00101497 2.57325e-21)
(0.000492584 0.00086714 0)
(0.000429716 0.000887128 -1.38987e-21)
(0.000508541 0.00132356 -6.44358e-23)
(0.000608161 0.00119747 8.95167e-24)
(3.14076e-05 0.000743876 0)
(0.00066422 0.000672573 -2.88105e-21)
(0.000639163 0.00113685 -1.83927e-22)
(0.000747808 0.00154497 -5.03129e-24)
(0.000608241 0.000706535 -8.29696e-22)
(0.00056317 0.00102878 -9.97631e-22)
(0.000491239 0.00101425 -5.69837e-22)
(0.00055437 0.000965281 -5.36389e-24)
(0.000568121 0.00104285 4.28816e-26)
(0.000677218 8.65241e-05 -1.94236e-22)
(0.000267018 0.000740062 -1.31821e-21)
(0.000643445 0.00107833 -5.37279e-22)
(0.000556887 0.000973002 -1.19052e-23)
(0.000574142 0.00101978 -2.47033e-22)
(0.00052038 0.00104136 -8.80367e-23)
(0.000550527 0.000996788 0)
(0.000773703 0.000235961 1.17255e-21)
(0.000572427 0.000994449 -4.95968e-22)
(0.000599509 0.000417783 6.60442e-22)
(0.000616236 0.00110472 1.56424e-21)
(0.000741526 0.000889998 0)
(0.00109207 0.000359894 7.68912e-22)
(0.000527014 0.00100277 1.49663e-25)
(5.21039e-05 0.000100036 -6.57681e-22)
(0.000629055 0.00101603 0)
(0.000360872 0.00068412 6.42266e-22)
(0.000768146 0.00135191 -9.55064e-22)
(0.00059403 0.00102614 0)
(0.00055371 0.000998672 0)
(0.00077384 0.00133596 0)
(0.000909676 0.000364373 -7.08528e-22)
(0.000458022 0.000983443 0)
(0.000503672 0.000709648 -2.04863e-21)
(0.000378452 0.000932301 -2.47936e-21)
(0.00116838 0.00130646 -9.15159e-22)
(0.00066586 0.00110643 -2.02784e-22)
(0.000729563 0.00129947 -6.22855e-25)
(0.000556388 0.000926421 6.46993e-22)
(0.000547975 0.000353551 -4.85396e-22)
(0.000668992 0.00118527 0)
(0.000494826 0.000686301 -6.55733e-22)
(0.000545953 0.000705678 8.8572e-22)
(3.38358e-05 -1.22461e-05 0)
(0.00050556 0.000991367 -2.44646e-22)
(0.000551401 0.000931433 2.14017e-22)
(0.000343748 0.000781547 0)
(0.000811669 0.000197079 4.94024e-22)
(0.000635038 0.00113071 0)
(0.000384823 0.000915066 3.25635e-22)
(0.000801501 0.0013505 1.21522e-21)
(0.00047036 0.000933848 -1.1141e-21)
(0.000556879 0.00109712 -7.39272e-23)
(0.000390791 0.000988523 -1.6323e-21)
(0.000485461 0.000580287 -1.80358e-21)
(0.000618256 0.000769564 -9.60643e-25)
(0.000428181 0.00102957 1.26669e-22)
(0.00067337 0.00109581 9.70486e-23)
(0.000570259 0.000361735 9.79117e-22)
(0.000681472 0.000859732 -2.60983e-21)
(0.000491105 0.000805879 0)
(0.000655211 0.00118281 6.14828e-22)
(0.000539442 0.000972771 -2.36771e-21)
(0.000390607 0.000915101 0)
(0.000873754 0.000329869 1.60084e-21)
(0.00055542 0.0010037 0)
(0.000734737 0.0013462 -1.38251e-22)
(0.000790231 0.001372 -6.62873e-22)
(0.000772892 0.00133825 5.3533e-22)
(0.000792193 0.00135214 -8.6024e-22)
(0.000633958 0.00120416 -2.121e-22)
(0.000453392 0.000235744 1.02885e-24)
(0.000503087 0.000440681 -1.32416e-21)
(0.000588819 0.000242623 0)
(0.000619499 0.00113616 1.21782e-21)
(0.000876385 8.81233e-05 -4.44134e-22)
(0.00062716 0.00108766 0)
(0.000602248 0.00115454 0)
(0.000197342 0.000400199 5.1616e-22)
(0.000591402 0.00118426 0)
(0.000618433 0.0011327 -2.7606e-21)
(0.000483338 0.00103981 5.5207e-22)
(0.000780704 0.0013534 7.94765e-22)
(0.000260512 -1.09737e-05 -5.3694e-22)
(0.000542842 0.000817166 -8.93634e-22)
(0.000122153 0.000503632 -6.9071e-22)
(0.000873045 0.00117428 -2.1145e-21)
(0.000575856 0.00102752 -2.21997e-22)
(0.000658111 0.00104931 1.55252e-21)
(0.000629694 0.00110445 -1.25166e-22)
(0.000659228 0.000169434 2.83506e-24)
(0.000828603 0.00132341 6.58256e-22)
(0.00057437 0.00103836 2.37674e-22)
(0.000635297 0.00109971 6.17849e-23)
(6.9945e-05 0.000512436 0)
(0.000575826 0.00104517 0)
(0.000522312 0.000978167 -1.44295e-21)
(0.000596631 0.00107438 5.08463e-23)
(0.000533618 0.000995633 -1.23765e-21)
(0.000557915 0.000976821 -2.89005e-24)
(0.000539273 0.000982324 0)
(0.000603435 0.000791562 -6.44559e-22)
(0.000787858 -7.06729e-05 -1.94489e-21)
(0.000571695 0.000407359 0)
(0.000556483 0.000989534 7.50718e-23)
(0.000577823 0.000993558 -4.67049e-23)
(0.000669932 0.00055738 1.80179e-21)
(0.000545743 0.000987539 7.53301e-25)
(0.000767285 0.00131726 -8.78639e-24)
(0.000474697 0.00099749 -4.65056e-22)
(0.000640691 0.00117583 -1.15493e-22)
(0.0006032 0.00117857 -8.1052e-23)
(0.000698466 0.00116345 0)
(0.000447874 0.00130728 1.44079e-21)
(0.000631725 0.00108462 1.06866e-21)
(0.000546103 0.00110737 -7.59568e-22)
(0.000349129 -4.47602e-05 -2.6722e-25)
(0.000642485 0.00117844 -5.97576e-22)
(0.000433002 0.000877607 1.3572e-21)
(0.00036752 0.000153423 7.62948e-22)
(0.000630296 0.00110876 0)
(0.000570095 0.00100425 1.0469e-21)
(0.000337311 0.000747008 -2.19783e-22)
(0.00117863 -4.00361e-05 6.41435e-22)
(0.000299501 0.00078438 7.14694e-22)
(0.000748573 0.00126743 1.46806e-22)
(0.00062855 0.0011114 -6.26581e-22)
(0.000550508 0.000980428 -8.0232e-22)
(0.000546508 0.000939279 2.12148e-21)
(0.000785881 0.00136622 5.07059e-22)
(0.000606609 0.000220477 -1.49829e-21)
(0.000564938 0.000180312 1.72394e-21)
(0.000619752 0.000118343 -1.78413e-21)
(0.000765602 0.00134462 3.38579e-23)
(0.000417593 0.000899059 -2.68454e-21)
(0.000644888 5.32522e-05 9.36218e-22)
(0.000627896 0.00116766 0)
(0.000785084 0.00136985 -5.17095e-22)
(0.000582539 0.000998308 9.60583e-22)
(0.000326422 0.000812712 -2.40288e-22)
(0.000258034 0.000395313 -1.22039e-22)
(0.000538437 0.000997269 7.07243e-24)
(0.000581522 0.00107309 2.43556e-22)
(0.000588322 0.00102642 -5.32734e-22)
(0.000540274 0.00101199 0)
(0.000542105 0.000921865 -9.22695e-22)
(0.000671273 -5.95717e-06 9.7939e-22)
(0.000629238 0.0011595 -6.16501e-22)
(0.000675445 0.00120428 5.95835e-22)
(0.000945082 0.0012823 -4.03241e-23)
(0.000579195 0.00023963 0)
(0.000420369 0.000140704 -6.98675e-22)
(0.000644315 0.00108536 -7.85388e-24)
(0.000627543 0.00111232 -6.60316e-22)
(0.000553484 0.001037 3.56068e-23)
(2.01661e-05 1.66744e-05 1.45633e-22)
(0.000624854 0.00110168 1.3313e-22)
(0.00043433 0.000796484 -1.09807e-21)
(0.000818539 5.10016e-05 9.23626e-22)
(0.000661379 0.000134949 9.11406e-22)
(0.000719153 0.00135825 -2.20795e-23)
(0.000576548 0.00122029 0)
(0.000479007 0.000794287 -9.95007e-22)
(0.000401907 0.000690991 0)
(7.27178e-05 -3.76737e-06 7.6962e-22)
(0.000626079 0.00110312 -4.13106e-22)
(0.000683515 8.42117e-05 -1.10248e-21)
(0.000621996 0.00109899 -5.31088e-22)
(0.000513325 0.00104223 5.79883e-22)
(0.000478783 0.000951854 6.37677e-22)
(0.000762225 0.0012813 -5.52773e-22)
(5.38077e-05 0.000140112 2.47381e-21)
(0.000785072 0.00134842 2.14851e-22)
(0.000883309 9.32526e-05 0)
(0.000563351 0.00109239 1.05814e-22)
(0.000450457 0.000700041 -3.35893e-24)
(0.00056689 0.00100842 0)
(0.000591484 0.000437986 -2.63552e-21)
(0.000855106 -6.88317e-06 0)
(0.000634855 0.00109975 1.18762e-22)
(0.000542823 0.000998365 7.4845e-22)
(0.000665173 0.0011768 -1.78859e-21)
(0.000610499 0.00107793 -1.64218e-22)
(0.000822519 0.000153398 -1.06672e-22)
(0.000561921 0.000996171 0)
(4.34494e-05 0.000352906 -1.56654e-22)
(0.000789424 0.00139727 0)
(0.000175258 0.000362198 0)
(3.18616e-05 0.000773674 -3.7824e-22)
(0.000519658 0.00104845 -1.0463e-21)
(0.000644168 0.000185314 -8.19554e-22)
(0.000634734 0.00107685 1.06313e-21)
(0.000423312 0.000924777 1.70793e-22)
(0.000740721 0.0011706 -1.21271e-21)
(0.000565168 0.00126495 0)
(0.000583618 0.00104007 4.37942e-22)
(0.000794373 0.00137757 0)
(0.000801117 0.00137561 -8.56544e-24)
(0.000555942 0.00105392 1.28358e-21)
(0.000575228 0.000985313 1.07886e-22)
(0.000554196 0.000663337 2.20415e-21)
(0.000476525 0.000403265 1.38631e-21)
(0.000468036 0.000981747 0)
(0.000585623 0.00104059 -1.3679e-22)
(0.000797074 0.00137973 0)
(0.000568577 0.00100366 0)
(0.000574664 0.00106627 -1.37822e-21)
(0.0010202 0.000175319 7.61764e-22)
(0.000602573 0.00122931 0)
(0.000199446 7.97341e-06 1.02052e-21)
(0.000509145 0.000938047 -8.7489e-23)
(2.55322e-05 0.000122768 1.1874e-21)
(0.000675877 0.000477423 -1.07847e-22)
(0.000690358 0.00116887 5.83276e-22)
(0.000789806 0.00112815 1.13021e-21)
(0.000680588 0.0010731 -5.64703e-22)
(0.000533343 0.00122045 0)
(0.000543008 0.00103531 6.48631e-22)
(2.87294e-05 0.000397864 4.02868e-23)
(0.000566468 0.00100427 -4.8597e-22)
(0.000517453 0.00102609 -3.03283e-22)
(0.000786611 0.00136685 -4.52352e-22)
(0.000783411 0.00135435 -1.41122e-24)
(0.000572507 0.00101838 0)
(0.000650737 0.00120773 5.83003e-22)
(0.000675542 0.00110599 -9.57199e-22)
(0.000591522 0.00103952 2.45512e-22)
(0.000862961 0.000244791 5.52119e-22)
(0.000577052 0.00103861 8.98549e-22)
(0.000594485 0.0010365 0)
(0.000546144 0.001087 0)
(0.000533713 0.00104105 5.97818e-22)
(0.000536263 0.000932919 -1.23834e-22)
(0.000572629 0.000986232 1.29439e-21)
(0.000624991 0.00111043 0)
(0.000542679 0.000917513 5.11198e-22)
(0.00103545 0.000382658 1.00918e-23)
(0.000620698 0.00111605 3.05502e-22)
(0.000570284 0.00100943 -9.16431e-22)
(0.000592467 0.000676474 6.42653e-22)
(0.000612989 0.0010991 -9.31083e-22)
(0.000698227 0.00121222 5.53064e-25)
(0.000749074 3.73973e-05 -1.62267e-21)
(0.000565413 0.00113089 2.20137e-22)
(0.000295734 0.000999991 0)
(0.000591633 0.00105351 -1.24335e-21)
(0.000422087 0.000946945 7.74591e-25)
(0.000444446 0.00127602 0)
(0.000333486 0.000890771 8.13662e-22)
(0.000610683 0.00108944 -1.17496e-21)
(3.5181e-05 -1.84711e-06 1.65265e-21)
(0.000280773 0.00132155 -9.87701e-22)
(0.000618864 0.00111085 -6.17066e-22)
(0.000665682 0.000424057 5.02054e-22)
(0.000558656 0.00100395 4.43355e-22)
(0.000579753 -0.000422442 -1.12339e-22)
(0.000814252 9.84124e-05 0)
(5.96562e-05 -1.17736e-06 0)
(0.000546385 0.00100424 -1.56549e-21)
(4.08287e-06 2.25567e-05 7.90284e-23)
(0.000615841 0.00109786 1.02389e-21)
(0.000560768 0.000992452 1.20572e-22)
(0.000557287 0.00101571 1.09507e-22)
(0.000617879 0.00108176 1.9333e-22)
(0.000534601 0.00113707 6.71009e-22)
(4.3439e-05 2.36746e-06 -1.78314e-22)
(0.000653091 0.00121172 -1.02175e-21)
(0.000594677 0.0010319 -1.81895e-22)
(0.000291736 5.56851e-05 0)
(0.000554382 0.00101631 5.1197e-22)
(5.10429e-05 -7.75617e-06 0)
(0.000643338 0.00108004 -1.06094e-21)
(5.55936e-06 -6.12411e-05 0)
(4.59798e-05 -6.46584e-06 0)
(0.000680085 0.00120318 3.45618e-22)
(0.000550606 0.00103953 5.31282e-22)
(0.000381295 0.000594441 -2.06633e-22)
(0.000562905 0.000992819 -8.2864e-22)
(0.000595072 0.00103652 -7.4488e-22)
(0.000636346 0.00109456 -5.15078e-22)
(4.03998e-05 0.000221834 -3.08751e-22)
(0.000871799 0.000101417 0)
(0.000795793 0.00135889 0)
(0.000675502 0.001303 -6.06111e-22)
(0.000587669 0.00103925 6.69181e-22)
(0.0006248 0.00110097 0)
(0.0005696 0.00100636 -1.79069e-21)
(0.00057693 0.000970348 -1.9563e-21)
(0.000604253 0.00115454 0)
(0.000562926 0.00099874 0)
(0.000566505 0.00102042 -2.38481e-22)
(0.000403012 0.000301958 5.2535e-22)
(0.000528403 0.000813217 -3.14554e-25)
(0.00059074 0.00103525 -1.53036e-22)
(0.000666135 0.00121225 2.45291e-22)
(0.000584808 0.00104118 7.25036e-22)
(0.000577347 0.00103857 -7.52199e-22)
(0.000782455 0.00135768 -1.4573e-21)
(0.00055883 0.00100443 4.80761e-23)
(0.000624795 0.00035649 -2.75507e-21)
(0.000604567 0.00115477 -8.17403e-24)
(0.000595999 0.00103316 -2.09388e-22)
(0.00065584 0.0011948 -4.37748e-24)
(4.95897e-05 7.95213e-06 -3.60029e-23)
(1.95257e-05 9.85218e-05 -1.16946e-21)
(0.000559873 0.000999319 8.23367e-22)
(0.000592749 0.00105758 -7.68163e-22)
(0.000825958 0.000803461 0)
(0.000571459 0.0009986 8.91104e-22)
(0.000586922 0.00118866 -3.80917e-23)
(0.000657656 0.00122229 -7.01545e-23)
(0.000569861 0.0011292 -1.5785e-21)
(1.54832e-05 8.15918e-05 -4.60564e-22)
(0.000667354 0.00122248 0)
(0.000624941 0.00111327 0)
(0.000580642 0.00104033 5.95171e-22)
(-4.10944e-06 3.84792e-05 2.07378e-24)
(0.000517729 0.00106902 0)
(0.000793033 0.00136026 6.05883e-22)
(0.000579775 0.000995273 9.5864e-22)
(6.19658e-05 0.000240855 0)
(0.000668157 0.00116714 0)
(4.84525e-05 1.18031e-05 3.50685e-23)
(0.000574671 0.00102095 1.70726e-21)
(0.000370439 0.00100969 8.46021e-22)
(0.000800995 0.00136143 3.9294e-22)
(0.00059955 0.00109287 -2.95521e-22)
(0.000563312 0.000996182 -2.05491e-22)
(0.000597329 0.00103099 0)
(0.000553604 0.00105202 -6.34561e-22)
(0.000632841 0.00110132 0)
(5.38065e-05 -2.21094e-05 -6.64098e-22)
(0.000785812 0.00136522 -1.87203e-21)
(0.000796822 0.00137221 1.01995e-21)
(1.80954e-05 0.000122772 1.89688e-21)
(5.79382e-05 -1.12006e-05 0)
(0.000779208 0.00135342 4.99934e-22)
(0.000646984 0.00120176 1.94359e-25)
(0.000564954 0.00103972 7.67331e-23)
(0.000586241 0.00102677 -3.29984e-22)
(0.000575375 0.00109619 8.92434e-23)
(0.000578105 0.00101761 -1.27854e-21)
(0.000591098 0.0010668 -6.33805e-22)
(0.000497443 0.00129398 -9.78755e-25)
(0.000629767 0.00110507 5.66088e-22)
(0.000561282 0.000989656 -1.23206e-22)
(6.46295e-05 0.000284497 0)
(2.9042e-05 2.03212e-05 2.75151e-22)
(0.000743002 0.00128311 -5.6112e-22)
(0.000882472 0.000109036 2.98599e-22)