/*--------------------------------*- C++ -*----------------------------------*\
  =========                 |
  \\      /  F ield         | OpenFOAM: The Open Source CFD Toolbox
   \\    /   O peration     | Website:  https://openfoam.org
    \\  /    A nd           | Version:  7
     \\/     M anipulation  |
\*---------------------------------------------------------------------------*/
FoamFile
{
    version     2.0;
    format      ascii;
    class       volScalarField;
    location    "100";
    object      p;
}
// * * * * * * * * * * * * * * * * * * * * * * * * * * * * * * * * * * * * * //

dimensions      [0 2 -2 0 0 0 0];

internalField   nonuniform List<scalar> 
591
(
0.000123841
0.000123858
0.000123862
0.000123808
0.000123812
0.000123882
0.00012387
0.000123846
0.000116967
0.000123867
0.000124053
0.000122804
0.000123852
0.000119693
0.000123846
0.000123884
0.000123846
0.000123896
0.000121921
0.000123227
0.000123829
-3.52336e-06
0.000124047
0.00012383
0.000124002
0.000123853
0.000123968
0.000123963
0.000123866
0.000123875
0.000124022
0.000123996
0.000124016
0.000124015
0.000124017
0.00012334
0.000124012
0.000123831
0.000124041
0.000123957
0.000123908
0.000124009
0.000123861
0.000123886
0.000124006
0.000124027
0.000119198
0.000124032
0.000123865
0.000123977
0.000123985
0.000124013
2.39497e-05
3.05966e-05
4.78455e-05
0.000123859
0.000124036
0.000124029
0.000124029
0.000123839
0.000123926
0.000123858
0.000123855
0.000123906
0.000122532
0.000123857
0.000123861
0.000124026
0.000120698
0.000123873
0.000123865
0.000124033
0.000124011
0.00012401
0.000124016
0.000123992
0.000123834
0.00012403
0.000123836
0.000123775
0.000123608
0.000124035
0.000123993
0.000123981
0.000124042
0.000123847
0.000123932
0.000124024
0.000123986
0.000123739
0.000123998
0.000123953
0.000123964
0.000123838
0.00012404
0.000123995
0.00012354
0.000123439
0.000123613
0.000124047
0.00012395
0.000123879
0.000124052
0.000123804
0.000124054
0.000123859
0.000123855
0.000123997
0.000124047
0.00012405
0.000123943
0.000124026
0.000123872
0.000124028
0.000124044
0.000124032
0.000123987
0.000123976
0.000123549
0.000123954
0.000123859
0.00012385
0.000123945
0.000123835
0.00012401
0.000120162
0.000124054
0.000124033
0.000123606
0.000124018
0.000123848
0.000123532
0.000123994
0.000123984
0.000124021
0.000123864
0.000122595
0.00012405
0.00012385
0.00012354
0.000123612
0.000123948
0.000124036
0.000124043
0.000124036
7.61934e-06
3.68069e-06
2.07323e-06
3.81681e-05
3.67075e-05
5.66366e-06
3.8321e-05
1.57443e-05
3.73049e-05
1.78115e-05
0.000123859
0.000123849
0.000124042
0.000124031
0.00012404
0.000124039
0.000124031
0.000124026
0.000124043
0.000124039
0.000124008
0.00012404
0.000124035
0.000124043
0.000123988
0.000123361
0.000124042
0.000122098
0.000124029
0.000124021
0.000123975
0.000123867
0.000124021
0.000124038
0.000124039
0.000123458
0.000122443
0.000123018
0.000123408
0.000124025
0.000124033
0.000123926
0.000123828
0.000124029
0.000122938
0.000123266
0.000123827
0.000124018
0.000123717
0.000124012
0.000124037
0.000124013
0.000123684
0.000123819
0.000124034
0.000124038
0.000124039
0.000123841
0.000124019
0.000123838
0.000124046
0.000123852
0.000123851
0.000124042
0.000123642
0.000123819
0.000123862
0.000123502
0.000123996
0.000123648
0.000123937
0.000123955
0.000124027
0.000123414
0.000123923
0.000123812
0.000123811
0.000123992
0.000123758
0.000123907
0.000123825
0.000123739
0.000123803
0.000124046
0.000123804
0.000124045
0.0001239
0.000124025
0.000123867
0.000123869
0.000124049
0.000123753
0.000124033
0.000123741
0.000123791
0.000123856
0.000123835
0.000123873
0.00012386
0.000123629
0.000123832
0.000123787
0.000123997
0.000123851
0.000123711
0.000123987
0.000123257
0.000123827
0.000123148
0.000123036
0.000123842
0.000123806
0.000123845
0.000123841
0.000123817
0.000124048
0.000123888
0.000123959
0.000123903
0.000123892
0.000123904
0.000124004
0.000123652
0.000124044
0.000123688
0.000123574
0.000123877
0.000124023
0.0001236
0.000124037
0.000123951
0.000123957
0.000123987
0.000123868
0.000123845
0.000123683
0.0001238
0.000123842
0.000123883
0.000123945
0.000124005
0.000124025
0.00012403
0.000123785
0.000123894
0.000124018
0.000124025
0.000124019
0.00012381
0.000124033
0.000123909
0.000124022
0.00012377
0.000124032
0.000123757
0.000124008
0.000123899
0.000123844
1.16442e-05
2.19172e-05
0.000123779
0.000123865
0.000124048
0.000123791
0.000124047
0.000123875
0.000124032
0.000124008
0.000123739
0.000124002
0.000123832
0.000124045
0.000123867
-2.09472e-07
0.000123744
0.000124014
0.000124008
0.000123697
0.000123862
0.000123906
0.000124001
0.000123752
0.000124025
0.000123907
0.000123859
0.000124
0.000123803
0.000123727
0.000123766
0.000123869
4.74993e-05
0.000124019
0.000123999
0.000123857
0.000124027
0.000123935
0.000123879
0.000123863
0.000123846
0.000124011
0.000123874
0.000123777
0.000123913
0.000123783
0.000124025
0.00012379
0.000123853
0.000123886
0.000123968
1.98768e-05
2.73153e-05
3.43033e-05
9.64133e-06
0.00012383
3.30635e-05
2.60213e-05
0.000124022
1.90773e-05
1.70329e-05
3.81925e-05
7.57808e-06
3.99439e-05
5.60655e-06
4.08377e-05
3.69025e-06
4.28197e-05
1.87742e-06
3.64182e-05
2.31991e-05
2.94502e-05
1.4995e-05
0.000123715
0.000124034
0.000123898
0.000123912
0.00012086
0.000123949
0.000124029
0.000123998
0.000123795
0.000124034
0.000124042
0.000124013
0.00012401
0.000123774
0.000123847
0.000124026
0.000124032
0.000123867
0.000123728
0.00012382
0.000123376
0.000123828
0.000124052
0.000124017
0.000123858
0.000124042
0.000123698
0.000123872
0.000123658
0.000122816
0.000124012
0.000124024
0.00012405
0.000123714
0.000123912
0.000123657
0.000123873
0.000123866
2.60567e-05
2.18819e-05
3.30428e-05
1.16203e-05
0.000124053
0.000123707
1.98235e-05
2.82641e-05
3.56097e-05
9.59009e-06
0.000123877
0.000123953
0.000123821
0.000123828
0.000123848
0.000123994
0.000123784
0.000124007
0.00012396
0.000123071
0.000123831
0.000123797
5.93903e-05
0.000123197
0.00012404
0.000123842
0.00012373
0.000124028
0.000124031
0.000123822
0.000123621
0.000123855
0.000123896
0.000123705
0.000123983
0.000122866
0.000123777
0.000123804
0.000124003
0.000100862
0.000123849
0.000123457
0.000123766
0.00012404
0.000123668
1.08981e-05
2.11177e-05
3.53754e-05
2.82139e-05
1.36643e-05
5.62426e-08
4.20936e-05
2.69162e-06
4.01669e-05
4.76377e-06
3.94245e-05
6.81661e-06
3.8632e-05
8.85935e-06
3.7298e-05
1.36761e-05
3.17347e-05
3.05983e-05
2.39449e-05
2.52672e-05
1.77685e-05
1.29406e-05
1.57103e-05
0.000124033
0.000102378
0.000123829
0.000123756
0.000124037
0.000123926
0.000124044
0.000123759
0.000123887
0.000124003
0.000123998
0.000124008
0.000123757
0.000123853
0.000123772
0.00012396
0.000123788
0.000124038
0.000123917
0.000123746
0.000123754
0.000123863
0.000123857
0.000124045
0.000124035
0.000124049
0.000124002
0.00012405
0.000123673
0.000123853
0.000124039
0.000123799
0.00012393
0.000123861
0.000123912
0.00012374
0.000124002
0.000124001
0.000123315
0.00012134
0.000123041
0.000123587
0.000123852
0.000123682
0.000123865
0.000124045
0.000124016
0.000123859
0.000123473
0.00012345
0.000124038
0.000124004
0.000123878
0.000123967
0.000123514
5.83138e-05
4.01254e-05
0.000123973
0.000123991
0.000123356
0.000122716
0.00012384
0.000123598
0.000123344
0.000123848
0.000123772
0.000124035
0.000123881
0.000123915
0.000118973
5.44693e-05
0.000123884
8.12596e-05
1.86262e-06
-3.80355e-07
0.000123848
0.000123816
0.000124003
0.000124048
0.000124042
0.000124038
0.000124044
0.000123835
-2.30651e-06
0.000122791
0.000123877
0.000123979
0.000121978
0.000124037
0.000124037
0.000122258
0.000123954
0.000124005
0.000121657
0.000124047
7.63289e-05
0.000124035
0.000123761
0.000123996
0.000122342
0.00012356
0.000123637
0.000123885
0.000124049
0.000123988
0.000124036
0.00012405
0.000123838
0.000116141
)
;

boundaryField
{
    back
    {
        type            empty;
    }
    ingreso
    {
        type            zeroGradient;
    }
    salida
    {
        type            fixedValue;
        value           uniform 0;
    }
    front
    {
        type            empty;
    }
    defaultFaces
    {
        type            zeroGradient;
    }
}


// ************************************************************************* //
