/*--------------------------------*- C++ -*----------------------------------*\
  =========                 |
  \\      /  F ield         | OpenFOAM: The Open Source CFD Toolbox
   \\    /   O peration     | Website:  https://openfoam.org
    \\  /    A nd           | Version:  7
     \\/     M anipulation  |
\*---------------------------------------------------------------------------*/
FoamFile
{
    version     2.0;
    format      ascii;
    class       volVectorField;
    location    "100";
    object      U;
}
// * * * * * * * * * * * * * * * * * * * * * * * * * * * * * * * * * * * * * //

dimensions      [0 1 -1 0 0 0 0];

internalField   nonuniform List<vector> 
591
(
(0.000837228 -5.26172e-06 1.21642e-18)
(0.000833124 -4.86476e-06 -6.61847e-19)
(0.000853842 1.87788e-05 5.7009e-20)
(0.000867573 -2.55897e-05 -1.49026e-19)
(0.00085553 -1.04776e-05 2.25456e-19)
(0.000803596 -3.84069e-05 -1.3958e-19)
(0.00056321 -0.000225039 8.06095e-19)
(0.000803718 4.30765e-06 2.107e-18)
(0.0057233 0.00251043 9.88012e-19)
(0.00081611 -5.71589e-07 2.44618e-18)
(4.59058e-05 0.000160287 1.21795e-18)
(0.000938657 0.00139511 9.40769e-21)
(0.000801317 4.25772e-06 1.32268e-18)
(0.00160381 0.0024044 -7.87416e-19)
(0.000803284 1.42285e-06 -4.46417e-19)
(4.37006e-05 -0.00015046 2.51766e-22)
(0.000140901 0.00066907 7.0483e-19)
(0.000817733 7.99775e-05 -4.96919e-19)
(0.00189763 0.000392145 4.73756e-19)
(0.00135944 0.000257136 -2.47082e-19)
(0.000831334 -8.89383e-06 3.73109e-19)
(0.00340058 0.00655993 -8.1449e-20)
(2.3047e-05 6.35558e-05 2.70875e-19)
(0.000836013 -2.54047e-05 -4.51545e-19)
(6.16455e-06 -1.10682e-05 3.58811e-19)
(0.000792397 4.36576e-05 0)
(9.47086e-05 0.000466721 1.59936e-19)
(0.000574905 -2.00908e-06 -1.78783e-19)
(0.00076599 4.73674e-05 1.14915e-18)
(0.000806222 7.0939e-05 5.84364e-19)
(4.87659e-05 -5.64429e-06 -5.40688e-24)
(2.1244e-05 -3.86515e-05 3.5207e-19)
(2.78735e-05 -2.53043e-06 -4.64084e-20)
(3.73076e-05 -1.22482e-05 0)
(4.58201e-05 -1.28385e-05 1.13112e-18)
(0.00117032 0.000140426 1.79841e-19)
(2.33882e-05 -4.13983e-06 4.47012e-20)
(0.000824074 4.417e-07 3.13265e-23)
(2.29303e-05 3.81149e-05 2.65954e-19)
(-7.71473e-06 -5.97843e-05 -8.53458e-19)
(0.000659873 -0.000189531 9.58753e-19)
(1.80512e-05 -4.86523e-06 4.54689e-20)
(0.000814341 1.90873e-05 -1.57823e-18)
(0.000832056 5.03711e-05 -6.90888e-19)
(1.16e-05 -5.44028e-06 0)
(4.76926e-05 3.70697e-06 8.51624e-20)
(0.00134938 0.00450317 8.92849e-19)
(6.7512e-05 1.00487e-05 8.6338e-20)
(0.000802559 1.67335e-05 0)
(0.000394689 -0.000231634 6.7699e-19)
(0.000390471 0.000265861 5.11795e-21)
(0.000404772 3.13182e-05 -1.0035e-18)
(0.00634781 0.0109403 -7.68752e-19)
(0.00622447 0.0107954 1.52807e-20)
(0.0056145 0.0103782 1.4561e-18)
(0.000805494 4.82292e-05 0)
(6.06541e-05 2.48909e-05 0)
(0.000320553 -8.34908e-06 2.69262e-23)
(5.53259e-05 6.37554e-06 -3.46359e-19)
(0.00081221 -6.89118e-06 0)
(0.000664443 2.8301e-05 3.17465e-19)
(0.00084634 2.79634e-05 2.20778e-18)
(0.000811625 3.92885e-05 -5.37388e-19)
(0.00080007 1.14918e-05 -3.1567e-19)
(0.00171354 0.000486935 5.42488e-19)
(0.000811302 3.26878e-05 -1.14576e-18)
(0.000839059 3.66942e-05 -5.23908e-19)
(6.95291e-05 -7.62061e-06 -1.73361e-19)
(0.000690532 0.00225773 0)
(0.000845656 4.95922e-05 0)
(0.000792969 2.74999e-05 -1.39249e-18)
(3.32064e-05 1.30369e-05 0)
(0.000293443 0.000262561 3.26772e-19)
(3.16983e-05 -1.5205e-05 0)
(3.38054e-05 -5.47196e-06 1.59426e-19)
(5.64407e-06 -3.3826e-05 -3.36563e-20)
(0.0008039 7.91484e-05 2.46927e-19)
(3.84966e-05 8.06772e-06 0)
(0.000812825 5.5542e-05 4.47421e-19)
(0.000782354 0.000295879 2.10671e-19)
(0.00096057 6.86802e-05 -3.97663e-20)
(3.78801e-05 1.9053e-05 -4.51733e-20)
(3.37104e-06 -1.11332e-05 0)
(0.000443639 0.000210295 1.70143e-19)
(2.66433e-06 1.59672e-05 0)
(0.00080684 4.8317e-05 -6.07676e-19)
(0.000649104 -0.000114735 0)
(5.58192e-05 -5.00503e-06 -1.74429e-19)
(9.35642e-07 -1.57137e-05 0)
(0.000836893 0.000242501 -3.41161e-19)
(1.93957e-06 -6.11775e-06 0)
(0.000433217 0.000319119 -1.3492e-23)
(0.000546137 0.000107237 0)
(0.000816703 4.43489e-05 -3.10781e-24)
(2.14084e-06 9.4595e-06 -4.21591e-20)
(0.000474775 -2.95487e-05 1.76299e-18)
(0.00101784 7.3742e-05 4.15852e-20)
(0.000781875 4.74327e-05 6.41598e-22)
(0.000748276 0.000659919 2.69434e-19)
(6.88846e-06 3.82353e-05 0)
(-6.88507e-06 -1.66035e-05 -3.12194e-19)
(-3.74394e-05 -1.36581e-05 -1.10164e-18)
(5.09062e-06 6.36411e-05 -5.96202e-19)
(0.000592152 -2.94519e-05 0)
(9.21344e-06 8.68616e-05 0)
(0.000821296 3.50871e-05 2.18135e-18)
(0.000801703 3.79458e-05 1.53387e-18)
(0.000452997 -0.000115031 0)
(3.88287e-05 0.000206531 -8.95121e-19)
(1.33802e-06 0.000149798 4.96795e-19)
(5.58058e-05 0.000388875 6.25128e-19)
(0.000311958 6.41148e-05 -9.36953e-19)
(0.000801842 1.99389e-05 1.37379e-19)
(0.000256514 -7.39109e-05 5.31066e-19)
(4.17715e-06 2.4022e-05 0)
(1.8613e-05 0.000267532 -1.09394e-18)
(0.000326679 0.000317793 -1.61668e-19)
(-1.80993e-06 -1.17319e-05 1.46513e-19)
(0.00067017 0.000804897 0)
(0.000375253 0.000380211 5.74284e-20)
(0.000826321 3.02089e-05 1.07035e-18)
(0.00079974 1.75385e-06 -2.72496e-18)
(6.48821e-06 1.28863e-05 0)
(0.000658821 -4.18351e-05 -1.12278e-19)
(0.000324332 -0.00015284 1.24283e-18)
(0.0026189 0.000810327 -3.36525e-19)
(8.28325e-06 0.000115956 -6.13124e-19)
(8.85483e-06 0.000143989 1.61951e-18)
(0.000654338 2.57993e-05 -3.8969e-20)
(5.31977e-05 -1.66315e-05 -7.49942e-19)
(0.000812417 3.97815e-05 -3.90195e-19)
(0.000705225 2.7773e-05 -4.10464e-20)
(3.13411e-05 0.000314611 -5.97046e-19)
(0.00050552 5.05091e-05 -4.93799e-19)
(4.05991e-05 -4.45481e-06 1.56106e-19)
(0.000842782 4.22509e-05 -1.08706e-18)
(0.00153025 0.000235126 -1.13651e-18)
(5.24823e-06 5.1121e-05 4.96292e-19)
(0.000813694 3.74458e-05 -5.03377e-19)
(0.000925383 0.000555394 -7.84899e-20)
(0.00015004 0.000778308 0)
(0.000603466 6.19354e-05 0)
(0.000278611 3.8611e-05 -1.60908e-18)
(5.83373e-05 5.14271e-05 -1.37371e-18)
(2.65961e-05 1.71658e-05 0)
(0.0042478 0.00740101 -1.01973e-20)
(0.00422589 0.00737259 3.16669e-20)
(0.00442806 0.00757532 -4.98711e-21)
(0.00420547 0.00773342 0)
(0.00419794 0.00759924 5.77349e-19)
(0.00424475 0.00740208 -9.20411e-20)
(0.00420925 0.00804081 4.84581e-19)
(0.00429052 0.00742351 0)
(0.0042077 0.00853357 6.16915e-19)
(0.00432708 0.00745218 2.23966e-19)
(0.000836511 2.34979e-05 -1.37219e-18)
(0.000785448 6.24263e-05 0)
(0.000210086 3.64846e-05 1.27669e-19)
(4.4028e-05 1.19476e-05 8.71594e-20)
(7.18243e-05 3.70598e-05 6.79831e-19)
(9.81726e-05 3.14095e-05 -3.41575e-19)
(8.96536e-05 -2.98559e-06 0)
(4.10063e-05 2.58178e-06 8.1813e-20)
(0.000208084 0.000119063 0)
(0.000159323 2.61742e-05 -5.24186e-20)
(0.000348787 0.000213434 -5.09139e-21)
(5.06375e-05 3.67326e-05 -4.37531e-19)
(8.28482e-05 1.88246e-05 -8.52232e-20)
(8.47501e-05 5.29328e-05 1.31159e-21)
(0.000262461 0.000358671 -6.66031e-19)
(0.000110576 0.000990315 0)
(3.80791e-05 4.63815e-05 3.42966e-19)
(0.000199876 0.00173954 0)
(0.0002091 0.000244539 7.04501e-19)
(2.98273e-05 -2.90045e-06 1.11462e-19)
(0.000495564 0.000158674 -1.72259e-19)
(0.000778054 2.87678e-05 -1.92363e-18)
(3.56217e-05 -1.80696e-06 4.98154e-24)
(0.000139098 1.15721e-05 2.24532e-19)
(0.000246868 7.77273e-05 -8.99096e-20)
(0.000883473 0.000694946 3.34869e-19)
(0.000726952 0.00163467 -9.23365e-21)
(0.000395771 0.00141806 -9.38035e-21)
(0.00103162 0.000548341 0)
(8.86502e-05 -2.17543e-05 1.1184e-18)
(0.000105694 3.77342e-06 -4.42855e-20)
(0.000474697 -0.000267612 -1.1361e-18)
(0.000825869 4.37769e-05 0)
(0.000174281 -1.88368e-05 3.63216e-19)
(0.000306439 0.00129664 0)
(0.00108954 0.000773635 -7.30035e-20)
(0.000826923 2.7096e-05 -1.86498e-19)
(6.41133e-05 -2.43283e-05 -2.99892e-19)
(0.000842855 0.000314295 -2.0799e-20)
(4.32241e-05 -2.10952e-05 -5.99308e-19)
(0.000228106 0.000164018 8.63679e-20)
(0.000232301 0.000302953 -3.44933e-19)
(0.000899545 0.000253779 0)
(0.000827816 5.82283e-05 0)
(0.000267632 0.000120303 1.76804e-19)
(0.000231844 -2.0266e-05 7.92535e-24)
(0.000185224 0.000196309 0)
(0.000307735 0.000644306 -5.5558e-21)
(0.000364048 -3.39581e-05 0)
(0.000383081 0.00059814 0)
(0.000103348 7.19469e-05 -1.34634e-21)
(0.000810624 3.10681e-05 -9.57269e-19)
(0.000805132 1.67354e-05 7.96371e-19)
(0.000122621 4.55833e-05 -1.49816e-19)
(0.000974892 0.000145878 8.50144e-20)
(0.000841501 3.75243e-05 3.33566e-19)
(0.000822942 3.57964e-05 -2.93996e-19)
(0.0010344 0.000421615 0)
(0.000450129 0.000107083 6.24262e-19)
(0.000915626 0.000324135 2.0908e-20)
(0.000594452 0.000149933 0)
(0.00027572 0.000443071 4.09557e-19)
(0.000263438 0.000207 -8.43983e-20)
(0.0011058 0.000385337 -7.81895e-19)
(0.000642564 0.000102436 -1.79239e-19)
(0.000823536 7.72079e-05 -7.45823e-21)
(0.000846139 2.23249e-05 9.39768e-20)
(4.98312e-05 -8.51318e-05 -1.98071e-18)
(0.000746912 0.000379439 2.19182e-19)
(0.000688169 6.98493e-05 2.3058e-20)
(0.000717884 0.000278893 1.62439e-23)
(0.00074143 0.000461853 -4.09579e-19)
(0.000854521 1.49047e-05 9.06808e-20)
(6.74242e-05 7.05789e-05 0)
(0.000664267 0.000425318 -4.65808e-20)
(0.000181341 8.14887e-05 0)
(0.000374219 0.000501436 -2.64784e-19)
(0.000312967 0.000155768 0)
(0.000687106 0.000205712 3.55126e-19)
(0.000661361 0.000259479 -4.37133e-20)
(7.88793e-05 9.59792e-05 6.18988e-19)
(0.000887523 9.74293e-05 -1.63859e-18)
(5.1112e-05 1.71556e-05 2.57117e-19)
(0.000900256 7.40064e-05 -1.68604e-18)
(0.000850959 9.116e-05 1.63039e-19)
(0.000815425 3.78813e-05 1.91212e-18)
(0.000822648 3.28832e-05 -1.32808e-19)
(0.000747969 7.03217e-05 0)
(0.000805134 1.91611e-05 8.96053e-19)
(0.000974786 0.000238755 -4.2697e-19)
(0.00079103 0.000101454 -4.83597e-19)
(0.0007842 0.00023822 -8.80965e-20)
(0.000193157 -0.000198328 -2.07483e-18)
(0.000766127 8.21808e-05 8.87277e-19)
(0.000644848 0.000591072 0)
(5.44466e-05 -0.000122911 0)
(0.0012308 0.000476981 4.97167e-19)
(0.000543717 -5.50386e-05 -3.27073e-18)
(0.00135637 0.000418516 5.76284e-19)
(0.00125539 0.000720253 -6.38857e-20)
(0.000817578 3.47419e-05 -2.12691e-19)
(0.000844753 6.66088e-05 -1.42791e-18)
(0.000814263 2.76341e-05 1.58726e-18)
(0.000814593 1.99884e-05 9.7777e-20)
(0.000676517 0.000353374 -4.4029e-20)
(9.84371e-05 0.000112016 9.48345e-24)
(0.000767688 -2.78841e-05 2.64904e-19)
(0.000206593 -0.000258104 -7.30965e-19)
(0.000642526 0.000182034 0)
(0.000728213 5.14647e-05 9.90083e-20)
(0.000723022 9.78025e-06 -3.80693e-19)
(0.000398046 0.000161793 3.93264e-20)
(0.000813799 0.000510598 -1.65436e-19)
(0.000144118 6.28293e-05 4.22066e-25)
(0.000821804 0.000412821 0)
(0.000991269 0.000315605 4.15647e-20)
(0.000771005 -5.92462e-05 -6.1591e-19)
(0.00035676 9.15047e-05 4.977e-19)
(0.000905828 0.000427909 0)
(4.38006e-05 2.63379e-05 1.33672e-19)
(0.000496555 0.000260596 2.13896e-19)
(0.000551567 -0.000173183 -7.09209e-19)
(8.89313e-05 -0.000176307 -1.05579e-18)
(0.000827169 4.16107e-05 -4.86555e-19)
(0.000758959 -6.02662e-05 -1.94562e-19)
(0.000551818 0.000728532 -1.17414e-18)
(0.000856476 4.58113e-05 -6.74173e-20)
(0.000558984 -8.93833e-06 1.28239e-18)
(0.000720764 9.94626e-05 2.2771e-20)
(0.000546164 0.000202897 -1.65642e-19)
(2.28024e-05 -1.82516e-05 -8.75588e-20)
(0.000147259 -6.29347e-05 2.4053e-18)
(1.1677e-05 5.16847e-07 -1.94801e-19)
(0.000845068 0.000119904 3.63637e-19)
(0.000684315 0.000134691 0)
(0.000167551 -0.000114826 -1.04791e-18)
(0.000109465 -2.90493e-05 3.12702e-19)
(8.96633e-05 -4.20467e-05 2.32512e-23)
(0.000812668 0.000105676 -3.19168e-19)
(0.000143273 -2.528e-05 0)
(0.000598674 0.000237577 0)
(0.000111389 0.000320935 -3.62769e-19)
(0.000870382 0.000101855 2.1078e-18)
(9.48944e-06 6.70874e-07 0)
(0.000890185 5.17826e-05 0)
(3.39167e-05 -2.44576e-05 0)
(0.000815175 4.90565e-05 -4.46668e-21)
(0.000781506 -2.68026e-05 0)
(0.00426093 0.00740775 8.07204e-20)
(0.00436298 0.00748824 1.43371e-19)
(0.000842514 -1.92008e-05 0)
(0.000799918 -3.21121e-05 8.1172e-19)
(0.000151287 0.000113697 1.49171e-19)
(0.000864298 6.65834e-05 8.08162e-19)
(0.000126086 9.11368e-05 2.34332e-20)
(0.000794092 -1.89429e-05 6.24015e-19)
(2.99251e-05 7.59442e-06 0)
(2.14063e-05 -1.09894e-05 -4.48344e-20)
(0.000908664 4.69903e-05 -4.86398e-19)
(2.34577e-05 -2.74678e-05 -6.696e-19)
(0.000771674 0.000127489 -4.23109e-20)
(0.000169346 0.000151399 -1.88053e-19)
(0.0008136 3.2217e-05 0)
(0.00468253 0.00815358 9.00953e-22)
(0.000195355 0.000791912 3.33384e-19)
(9.47826e-05 -6.89298e-05 -9.14261e-19)
(4.81195e-05 -3.4452e-05 -1.16844e-18)
(0.000585508 1.30057e-05 1.89608e-20)
(0.000586165 0.000403251 0)
(0.000426238 0.000445835 -2.56271e-19)
(6.2919e-05 -6.46547e-05 1.18339e-18)
(0.000547627 -1.63472e-06 7.67725e-20)
(3.59063e-05 8.52072e-07 4.06971e-19)
(0.000727324 -4.06454e-05 1.17123e-18)
(0.000812924 3.2354e-05 -6.0626e-19)
(4.64197e-05 -5.34612e-05 1.70897e-18)
(0.000840989 -4.42412e-05 -6.3186e-24)
(0.000561661 6.06706e-06 -3.7496e-20)
(0.000878899 7.22399e-05 0)
(0.000846909 5.29326e-05 0)
(0.00591532 0.00724359 2.59987e-19)
(1.18692e-05 -3.04819e-06 -1.19562e-19)
(9.03789e-05 -0.00011751 7.7283e-19)
(0.000740312 0.000114068 -6.96219e-19)
(1.44159e-05 2.87774e-07 2.01492e-19)
(0.000656406 -3.58409e-05 -7.23571e-19)
(0.000757513 3.54319e-05 1.55754e-18)
(0.000717391 0.000156958 -3.55334e-19)
(0.000807287 -1.14734e-05 3.60773e-19)
(6.09093e-05 -3.72071e-05 1.11565e-18)
(0.00080177 6.50502e-06 -3.2259e-19)
(0.000875848 3.52381e-05 0)
(0.00055235 0.0003012 4.20904e-20)
(0.000868824 4.90736e-05 -9.47462e-19)
(1.26518e-05 2.9377e-06 9.11301e-19)
(0.000862487 4.0435e-05 9.66003e-19)
(0.000864063 2.69911e-05 -9.64337e-19)
(0.000767563 1.4871e-06 -5.68986e-19)
(0.00055256 -8.48074e-05 -5.25474e-19)
(0.00433004 0.00745443 2.4708e-19)
(0.00422274 0.00752801 -2.53643e-19)
(0.00422036 0.00758582 2.67e-19)
(0.00425653 0.00741152 1.98021e-19)
(0.000845145 -3.85134e-05 1.44226e-19)
(0.00447701 0.00751499 0)
(0.00440457 0.00751897 -3.86878e-19)
(2.05611e-05 -1.46834e-07 -9.9794e-19)
(0.00417003 0.00746843 -6.33789e-20)
(0.00414554 0.00743171 -2.21564e-19)
(0.0060292 0.0106048 0)
(0.00654023 0.0111868 3.71573e-20)
(0.00600912 0.0105746 0)
(0.00655593 0.0112104 1.30972e-19)
(0.00599654 0.0105986 2.6972e-19)
(0.00659263 0.0112273 1.24722e-20)
(0.00593543 0.0106113 -7.76908e-19)
(0.0066229 0.0111463 8.16372e-21)
(0.00390341 0.00919731 -1.90823e-19)
(0.00418624 0.00748739 3.90072e-21)
(0.00423723 0.00755133 7.93765e-20)
(0.00415003 0.00743403 4.12131e-20)
(0.000896641 0.000196848 4.466e-20)
(6.52121e-06 9.03066e-07 0)
(0.000728802 -9.98545e-05 0)
(0.000657144 5.77005e-05 0)
(0.00244606 0.0011187 4.23347e-21)
(0.00075886 -3.03024e-05 1.72524e-19)
(3.46729e-05 4.15585e-06 4.53924e-20)
(5.09554e-06 -2.09128e-05 1.65246e-18)
(0.000863439 3.84157e-06 0)
(2.39007e-05 1.03423e-05 -1.91672e-19)
(0.000139048 0.000215043 0)
(1.05742e-05 -7.86624e-07 0)
(8.15158e-06 -8.61587e-07 0)
(0.00083872 0.000149532 1.13738e-20)
(0.000811034 -1.80104e-05 1.79549e-19)
(3.85704e-05 0.000255492 -9.34009e-24)
(0.000156215 0.000266034 -1.8415e-18)
(0.000613249 0.000325774 -8.56785e-20)
(0.000903836 0.000114475 6.02009e-19)
(0.000593622 -0.000147551 6.74699e-19)
(0.000358107 0.0011162 0)
(0.000482832 0.000575361 2.71472e-18)
(8.80144e-05 0.000137241 -1.80269e-18)
(1.40016e-05 -2.81396e-07 0)
(0.000822797 -6.41675e-05 3.64078e-20)
(1.35613e-05 3.08266e-05 1.64403e-18)
(0.000893678 3.60969e-05 2.71049e-19)
(-3.19832e-05 8.27565e-05 3.81116e-18)
(0.000925556 4.20757e-05 -2.68918e-19)
(0.00133346 0.00015579 7.47231e-19)
(2.80637e-05 -9.38212e-06 8.25464e-20)
(2.98299e-05 2.09059e-06 -8.58864e-19)
(5.07341e-05 0.000133558 0)
(0.000921049 9.00695e-05 5.98236e-19)
(0.000499921 0.000366393 2.3709e-19)
(0.000609831 1.72041e-05 -3.88933e-20)
(0.00078938 6.48104e-06 2.57277e-19)
(0.00072829 -0.000135374 0)
(0.00632095 0.0108952 -1.68102e-19)
(0.00637871 0.010973 4.0594e-19)
(0.00615997 0.0107299 -6.18586e-19)
(0.00650123 0.011132 -8.10049e-20)
(3.13786e-05 0.00011125 8.0033e-19)
(0.000930946 6.19275e-05 1.44488e-22)
(0.00641129 0.0110055 -3.86562e-19)
(0.00628192 0.0108449 5.48601e-19)
(0.00608008 0.0106717 -4.16907e-19)
(0.00652175 0.0111645 -6.81629e-20)
(7.8634e-05 0.000488891 -2.0178e-20)
(4.3865e-05 -0.000189654 -7.92666e-19)
(0.000635995 -1.95038e-05 -7.66716e-19)
(0.000732466 0.000219421 0)
(0.000800307 1.97947e-07 0)
(0.000189952 0.000384921 3.36227e-19)
(0.000603956 0.00051082 -5.41746e-19)
(5.06435e-06 -8.94796e-07 1.78344e-19)
(0.000200193 0.00046635 -7.38245e-19)
(0.00102397 0.000980331 -1.12679e-19)
(0.000755654 0.000166593 0)
(0.000796947 0.000184874 1.30985e-19)
(0.00634885 0.00588352 1.1321e-18)
(0.000735566 0.00113124 8.26525e-20)
(3.49093e-05 3.37685e-05 -7.44483e-20)
(0.000807951 1.10699e-05 0)
(0.000869963 2.21672e-05 -3.56814e-20)
(2.84478e-05 1.94542e-06 -1.96682e-19)
(2.48576e-05 3.26706e-06 1.92949e-19)
(0.000834912 1.2003e-05 5.37059e-19)
(0.000987157 0.000114374 6.58082e-19)
(0.000533114 4.72246e-05 0)
(0.000221053 -0.000264483 -3.98183e-19)
(0.000921323 0.000142961 3.89476e-19)
(1.74429e-06 -4.46849e-05 2.02929e-19)
(0.0014545 0.000443219 -2.58039e-18)
(0.000557614 -1.39382e-05 0)
(0.000801911 0.000141963 3.75365e-19)
(9.64394e-05 0.000385682 0)
(0.00118885 0.0081615 4.62071e-19)
(0.000498148 0.000497033 -1.22429e-18)
(0.000540732 0.00101817 -1.83719e-19)
(0.000889362 1.31977e-05 -1.46018e-19)
(1.04557e-05 2.1745e-05 0)
(0.000963393 7.84556e-05 6.11438e-19)
(0.00410613 0.00739499 8.14535e-20)
(0.00417086 0.00747289 4.73161e-20)
(0.00450079 0.00751771 4.5418e-19)
(0.00444605 0.0075433 -3.29483e-19)
(0.00647514 0.011109 8.10821e-20)
(0.00391482 0.007146 -9.4904e-22)
(0.0055076 0.00780049 -5.64864e-19)
(0.00409785 0.00737154 5.21942e-21)
(0.00518892 0.00786028 5.11798e-19)
(0.00407963 0.00733991 -4.87456e-20)
(0.00495428 0.00771983 0)
(0.00408486 0.00736418 -8.56922e-20)
(0.00474314 0.00759068 4.92629e-19)
(0.0040981 0.00737577 8.75436e-20)
(0.00457588 0.0075303 0)
(0.00428448 0.00742197 1.3978e-19)
(0.00423857 0.00759739 5.80792e-19)
(0.00446848 0.00752883 -5.55613e-19)
(0.00438876 0.00750648 3.71464e-19)
(0.00422731 0.00752393 2.87853e-19)
(0.00643048 0.0110423 -4.97798e-21)
(0.00411756 0.00740109 3.11693e-20)
(0.00645862 0.0110722 0)
(2.00323e-05 4.32468e-06 -1.8981e-19)
(0.00200186 0.00654707 2.28187e-19)
(0.000838216 -6.08109e-05 1.09638e-19)
(0.000852009 9.99497e-07 0)
(6.73201e-07 4.16992e-07 -3.99003e-19)
(-3.46916e-05 -7.64795e-05 6.90998e-19)
(2.30196e-05 5.15159e-05 2.08849e-18)
(0.000839475 0.000187539 -9.00436e-20)
(0.000801637 8.2848e-06 7.06201e-19)
(8.14398e-08 1.36445e-07 3.099e-19)
(1.2852e-05 -2.7508e-05 -1.8451e-18)
(0.000763636 2.65932e-05 1.6311e-19)
(0.000873712 0.000125766 -3.07899e-20)
(0.000801065 -6.99204e-06 1.48092e-19)
(0.000435077 0.000678782 0)
(3.76856e-06 -0.000131564 1.15106e-18)
(0.00087566 -7.61925e-07 1.52489e-19)
(1.7743e-05 2.07779e-05 0)
(0.000120141 0.000553086 -6.31147e-19)
(0.000614557 0.000583974 1.31767e-18)
(0.000334079 0.000757765 0)
(0.000802157 -1.43103e-05 0)
(0.000801826 3.10097e-06 1.17689e-18)
(1.47807e-05 4.41431e-05 -3.51408e-18)
(1.37163e-05 5.47123e-06 3.73524e-19)
(0.000116522 0.000136204 0)
(3.35369e-05 -3.81421e-05 0)
(5.85869e-05 0.000105704 2.00949e-19)
(0.000943559 0.000190546 3.50333e-19)
(0.000801241 1.48882e-05 -1.39347e-18)
(2.04608e-05 2.9231e-05 0)
(0.000410017 2.68933e-06 -6.04579e-20)
(0.000799655 3.54607e-05 -1.56311e-19)
(0.00085085 4.85215e-05 1.06519e-18)
(0.000252883 0.00054241 6.32106e-19)
(0.000884968 0.000158019 0)
(1.27964e-05 -1.90823e-05 5.38461e-19)
(1.29149e-06 -2.05598e-06 -3.19878e-19)
(0.00094229 3.49185e-05 0)
(0.00104862 0.00227077 0)
(0.000903222 3.00728e-06 0)
(0.00100815 0.000209032 4.27053e-19)
(0.000818812 -3.73124e-05 -2.84201e-19)
(0.000943535 0.000113537 -6.84578e-19)
(0.000801216 3.67657e-06 0)
(3.99661e-05 6.26793e-05 -1.71523e-19)
(0.000174755 0.000322162 1.08091e-18)
(0.00080102 1.36264e-05 -2.53295e-23)
(0.00110793 0.000209115 -6.68542e-19)
(0.00108814 0.000129422 0)
(1.80386e-06 3.67819e-06 2.50962e-19)
(1.38421e-05 -1.21304e-05 -1.94261e-19)
(0.000551648 4.80612e-05 6.94848e-21)
(-8.46002e-06 -5.84764e-05 0)
(0.00107692 0.000257227 9.49692e-19)
(0.00502875 0.0097482 -2.82927e-19)
(0.00312155 0.00961671 1.27258e-18)
(1.45947e-05 -9.12116e-05 -1.91267e-19)
(3.53082e-05 -6.99437e-05 1.8589e-18)
(0.00119154 0.00025876 1.67299e-19)
(0.00133171 0.00107566 2.34044e-19)
(0.000810557 3.30763e-06 -7.36641e-19)
(0.000199608 0.000948832 -2.38204e-19)
(0.000819531 0.000946599 -2.18542e-19)
(0.000800364 -1.999e-06 0)
(8.16076e-05 0.000609254 0)
(9.43114e-05 0.000276253 -3.53615e-23)
(0.000720065 -4.78813e-05 -1.67326e-23)
(0.000827336 6.9569e-05 1.52564e-19)
(0.00263252 0.00206741 -1.23125e-18)
(0.00176071 0.00923806 -1.17205e-19)
(0.000834175 7.1845e-05 4.92129e-19)
(0.00631841 0.00405325 -1.76226e-19)
(0.00672084 0.0115571 -1.36614e-20)
(0.00473406 0.00784376 4.93569e-21)
(0.000805844 1.3576e-05 -2.16581e-18)
(0.000843602 1.65183e-07 7.8328e-24)
(5.08273e-06 -5.18526e-06 -3.47924e-19)
(4.49497e-05 8.26937e-05 -3.49193e-19)
(6.16826e-05 0.000259742 8.75097e-19)
(8.6402e-06 1.34517e-05 4.9028e-19)
(8.97751e-05 0.000222173 3.69685e-19)
(0.000819277 1.47051e-05 0)
(0.0053482 0.00949237 1.94925e-20)
(0.0015479 0.000639005 -2.61159e-20)
(0.000819205 4.05641e-05 3.60083e-19)
(1.42477e-05 -7.14276e-05 0)
(0.00184854 0.000750006 5.45921e-19)
(7.10775e-06 5.70612e-06 -2.70085e-19)
(3.04031e-05 2.47912e-05 9.71573e-20)
(0.00133588 0.00139859 6.36569e-19)
(0.000739595 4.9797e-05 1.83058e-19)
(1.67161e-06 -7.03545e-07 -1.70156e-19)
(0.00206519 0.00156333 -1.05569e-18)
(0.000126787 0.000170836 -8.18587e-19)
(0.00392017 0.00848848 -1.09086e-18)
(3.09468e-06 9.30131e-07 8.81203e-20)
(9.48241e-05 -4.01429e-05 -1.25822e-18)
(3.42626e-05 -5.32748e-05 4.05532e-20)
(0.00153224 0.00098853 0)
(0.00104357 0.000141432 -4.00607e-22)
(0.000455034 0.00084596 -4.0199e-20)
(0.000803466 2.76093e-05 -2.34018e-19)
(8.68949e-05 0.000177231 7.35906e-19)
(1.86053e-05 -5.26032e-05 4.03887e-19)
(1.60295e-05 1.28814e-05 -9.46862e-20)
(2.82942e-05 8.44265e-05 -3.20213e-19)
(0.000215489 -0.000165767 -5.45629e-19)
(0.00325113 0.00346763 2.89996e-21)
)
;

boundaryField
{
    back
    {
        type            empty;
    }
    ingreso
    {
        type            fixedValue;
        value           uniform (0.0008 0 0);
    }
    salida
    {
        type            zeroGradient;
    }
    front
    {
        type            empty;
    }
    defaultFaces
    {
        type            noSlip;
    }
}


// ************************************************************************* //
