/*--------------------------------*- C++ -*----------------------------------*\
  =========                 |
  \\      /  F ield         | OpenFOAM: The Open Source CFD Toolbox
   \\    /   O peration     | Website:  https://openfoam.org
    \\  /    A nd           | Version:  7
     \\/     M anipulation  |
\*---------------------------------------------------------------------------*/
FoamFile
{
    version     2.0;
    format      ascii;
    class       volVectorField;
    location    "61.5";
    object      U;
}
// * * * * * * * * * * * * * * * * * * * * * * * * * * * * * * * * * * * * * //

dimensions      [0 1 -1 0 0 0 0];

internalField   nonuniform List<vector> 
591
(
(0.000826062 -2.84239e-05 1.21824e-18)
(0.000813501 -2.54631e-05 -6.6393e-19)
(0.000856821 -1.55197e-05 5.68982e-20)
(0.000855503 -7.06282e-06 -1.49155e-19)
(0.000838707 6.16596e-06 2.25567e-19)
(0.000801394 -4.08433e-05 -1.39655e-19)
(0.000555882 -0.000310399 8.06542e-19)
(0.000802434 3.75558e-06 2.07606e-18)
(0.00573497 0.00249782 9.87809e-19)
(0.000796228 -1.43294e-05 2.45521e-18)
(5.0382e-05 0.000171315 1.21851e-18)
(0.000925973 0.00137393 9.40979e-21)
(0.000798253 5.72264e-06 1.32336e-18)
(0.00160181 0.00238589 -7.87783e-19)
(0.000803112 3.3483e-06 -4.42041e-19)
(7.32296e-05 -0.000212045 2.44618e-22)
(0.000135606 0.000677253 7.05101e-19)
(0.000818959 5.94855e-05 -4.8952e-19)
(0.0019347 0.000390637 4.73536e-19)
(0.00135679 0.000255823 -2.47163e-19)
(0.000833362 -3.08775e-06 3.72199e-19)
(0.00340016 0.0065592 -8.15049e-20)
(2.85765e-05 7.12252e-05 2.70997e-19)
(0.000834351 -1.18849e-05 -4.50756e-19)
(1.23882e-05 -1.71007e-05 3.59003e-19)
(0.000768914 3.1287e-05 0)
(9.26636e-05 0.000475723 1.5999e-19)
(0.000538379 1.43019e-05 -1.7888e-19)
(0.000752284 4.86636e-05 1.14977e-18)
(0.000813298 4.31723e-05 5.92327e-19)
(5.92114e-05 -3.23997e-06 -4.01689e-24)
(3.4898e-05 -4.77614e-05 3.5225e-19)
(3.82547e-05 -3.23586e-06 -4.64322e-20)
(4.69901e-05 -1.16904e-05 0)
(5.61431e-05 -1.33158e-05 1.1317e-18)
(0.00117418 0.000130306 1.79948e-19)
(3.27106e-05 -5.66446e-06 4.47238e-20)
(0.00082694 7.38207e-06 3.04971e-23)
(2.82916e-05 4.48645e-05 2.66083e-19)
(2.04733e-05 -0.000109356 -8.54915e-19)
(0.000627023 -0.000203862 9.60501e-19)
(2.64336e-05 -7.17e-06 4.54919e-20)
(0.000798843 -5.91371e-07 -1.58039e-18)
(0.000829443 3.88999e-05 -6.90194e-19)
(1.82107e-05 -8.47034e-06 0)
(5.63689e-05 7.61353e-06 8.52044e-20)
(0.00134396 0.00450415 8.93086e-19)
(7.76953e-05 1.72702e-05 8.63795e-20)
(0.000799503 1.7344e-05 0)
(0.000379384 -0.000197727 6.77789e-19)
(0.000379518 0.000274974 5.12003e-21)
(0.000392031 5.32398e-05 -1.004e-18)
(0.00634815 0.0109419 -7.68504e-19)
(0.00622522 0.0107973 1.52856e-20)
(0.00561467 0.0103805 1.45578e-18)
(0.000810098 2.43312e-05 0)
(6.83228e-05 3.22003e-05 0)
(0.000317757 1.81816e-05 1.32435e-23)
(6.45187e-05 1.13841e-05 -3.46528e-19)
(0.000816258 -8.15385e-06 0)
(0.000631505 2.86487e-05 3.17635e-19)
(0.000830635 5.29122e-06 2.20959e-18)
(0.000795904 2.54656e-05 -5.43521e-19)
(0.000798885 1.61795e-05 -3.15817e-19)
(0.00171322 0.000477725 5.42428e-19)
(0.000795561 1.04411e-05 -1.15546e-18)
(0.000825683 1.46535e-05 -5.24265e-19)
(8.30032e-05 -1.38825e-06 -1.73446e-19)
(0.000688626 0.00226474 0)
(0.000832955 3.39461e-05 0)
(0.000774544 1.55801e-05 -1.39127e-18)
(3.90794e-05 1.66793e-05 0)
(0.000287344 0.000271958 3.26901e-19)
(4.21309e-05 -1.77919e-05 0)
(4.31988e-05 -6.04762e-06 1.59504e-19)
(1.83043e-05 -4.67422e-05 -3.36742e-20)
(0.000786737 7.50707e-05 2.47006e-19)
(4.54701e-05 1.12824e-05 0)
(0.000797435 5.68127e-05 4.4744e-19)
(0.000768343 0.000294026 2.10768e-19)
(0.00096499 6.14451e-05 -3.98018e-20)
(4.40143e-05 2.39167e-05 -4.51953e-20)
(6.05544e-06 -2.59479e-05 0)
(0.000430994 0.000218107 1.70216e-19)
(2.84824e-06 2.43524e-05 0)
(0.000785634 3.51196e-05 -6.07596e-19)
(0.000599035 -0.000120774 0)
(6.66401e-05 -9.15115e-07 -1.74514e-19)
(3.81726e-06 -3.55035e-05 0)
(0.000824947 0.000243107 -3.41335e-19)
(4.11777e-06 -1.55597e-05 0)
(0.000421241 0.000323876 -1.2923e-23)
(0.000526166 0.000112935 0)
(0.000803274 4.63348e-05 -3.47133e-24)
(2.82792e-06 1.56157e-05 -4.21798e-20)
(0.00045031 -9.42865e-06 1.76391e-18)
(0.0010239 7.23278e-05 4.1612e-20)
(0.000849134 4.39033e-05 6.41104e-22)
(0.000735911 0.000657422 2.69548e-19)
(6.5622e-06 5.12304e-05 0)
(1.95217e-06 -5.57789e-05 -3.12234e-19)
(-1.49433e-05 -0.000101881 -1.10038e-18)
(3.79204e-06 8.12384e-05 -5.96384e-19)
(0.000632817 -1.82359e-05 0)
(7.80854e-06 0.000106394 0)
(0.000806299 2.186e-05 2.19285e-18)
(0.000783601 2.19774e-05 1.53074e-18)
(0.000419943 -7.22611e-05 0)
(4.38035e-05 0.000220819 -8.95564e-19)
(-6.10916e-07 0.000174139 4.96657e-19)
(6.4068e-05 0.000417931 6.25171e-19)
(0.000303716 8.69909e-05 -9.3728e-19)
(0.000803241 1.9622e-05 1.37367e-19)
(0.000262174 -3.51494e-05 5.3133e-19)
(4.10933e-06 3.4495e-05 0)
(2.34396e-05 0.00029132 -1.09401e-18)
(0.000318788 0.000325147 -1.6173e-19)
(2.67762e-06 -4.50646e-05 1.46515e-19)
(0.000669891 0.000813247 0)
(0.000366506 0.000389227 5.74511e-20)
(0.000813214 1.19498e-05 1.07045e-18)
(0.000798813 1.2047e-06 -2.70967e-18)
(6.59152e-06 -5.81669e-05 0)
(0.000681624 -3.05965e-05 -1.12342e-19)
(0.000320225 -0.000103924 1.24349e-18)
(0.00264886 0.000802675 -3.36133e-19)
(4.76769e-06 0.000136888 -6.13204e-19)
(3.23399e-06 0.00016687 1.61943e-18)
(0.000726475 2.13397e-05 -3.89973e-20)
(6.52013e-05 -1.26898e-05 -7.50318e-19)
(0.000803921 2.61383e-05 -3.88294e-19)
(0.000774764 2.6106e-05 -4.10462e-20)
(3.93699e-05 0.00033752 -5.96902e-19)
(0.000482418 6.97128e-05 -4.94026e-19)
(5.01356e-05 -3.09575e-06 1.56185e-19)
(0.000829982 2.49274e-05 -1.09303e-18)
(0.00157137 0.000237551 -1.13696e-18)
(3.88752e-06 6.52154e-05 4.96458e-19)
(0.000808299 2.43155e-05 -4.95607e-19)
(0.0009061 0.000541289 -7.8525e-20)
(0.000142802 0.000796379 0)
(0.000577191 6.53233e-05 0)
(0.000274729 5.61355e-05 -1.60999e-18)
(6.40661e-05 5.96334e-05 -1.37436e-18)
(3.14941e-05 2.11357e-05 0)
(0.00424713 0.00740012 -1.01979e-20)
(0.00422554 0.00737187 3.16544e-20)
(0.00442774 0.00757464 -4.97058e-21)
(0.00420671 0.0077357 0)
(0.00419908 0.00760145 5.77171e-19)
(0.00424434 0.00740133 -9.20108e-20)
(0.00421038 0.00804357 4.84386e-19)
(0.00428937 0.00742184 0)
(0.00420859 0.00853693 6.16678e-19)
(0.00432577 0.00745024 2.2392e-19)
(0.000820328 3.24217e-06 -1.37354e-18)
(0.00076552 5.20302e-05 0)
(0.000214553 5.57144e-05 1.27716e-19)
(5.13182e-05 1.64528e-05 8.72019e-20)
(7.87417e-05 4.59122e-05 6.80153e-19)
(0.000106722 4.25581e-05 -3.41735e-19)
(0.000101408 6.65107e-06 0)
(4.92949e-05 5.27147e-06 8.18537e-20)
(0.000205718 0.000134987 0)
(0.000166381 4.47732e-05 -5.24377e-20)
(0.000341959 0.000224118 -5.09343e-21)
(5.65723e-05 4.38386e-05 -4.37741e-19)
(9.15814e-05 2.84778e-05 -8.5264e-20)
(9.10442e-05 6.30466e-05 1.3122e-21)
(0.000253928 0.00036763 -6.66285e-19)
(0.000106548 0.00100806 0)
(4.2598e-05 5.34994e-05 3.43129e-19)
(0.000202575 0.00175417 0)
(0.000207368 0.000254877 7.04783e-19)
(3.91038e-05 -4.01003e-06 1.11518e-19)
(0.000480262 0.000165188 -1.72333e-19)
(0.000757271 2.48695e-05 -1.92452e-18)
(4.38108e-05 -1.11306e-06 4.42432e-24)
(0.000149503 2.64578e-05 2.24632e-19)
(0.000243282 9.49262e-05 -8.99499e-20)
(0.000880927 0.00070732 3.34999e-19)
(0.000718323 0.0016332 -9.23742e-21)
(0.000390583 0.0014259 -9.39398e-21)
(0.00102257 0.000549755 0)
(0.000104112 -1.46221e-05 1.11893e-18)
(0.000117106 1.73918e-05 -4.43236e-20)
(0.000449954 -0.000287302 -1.13614e-18)
(0.000811082 3.6837e-05 0)
(0.000182448 5.54583e-06 3.63368e-19)
(0.000300479 0.00131689 0)
(0.001072 0.000771402 -7.30329e-20)
(0.000825784 3.46941e-05 -1.86534e-19)
(7.91065e-05 -2.06983e-05 -3.00043e-19)
(0.000824302 0.000320165 -2.08089e-20)
(5.9137e-05 -2.14925e-05 -5.99625e-19)
(0.000226131 0.000177126 8.6403e-20)
(0.000229006 0.000309954 -3.45071e-19)
(0.000882305 0.000246274 0)
(0.00081197 4.97734e-05 0)
(0.000262311 0.000139168 1.76879e-19)
(0.000234182 4.87304e-06 2.50429e-24)
(0.000184391 0.000207419 0)
(0.000291309 0.000654309 -5.55793e-21)
(0.000344517 -5.16453e-07 0)
(0.000366694 0.0006007 0)
(0.000109561 8.37487e-05 -1.34696e-21)
(0.000809784 2.53404e-05 -9.39799e-19)
(0.000808735 1.91226e-05 7.96124e-19)
(0.000129499 5.91612e-05 -1.49885e-19)
(0.000954744 0.000151417 8.50755e-20)
(0.000834828 4.40406e-05 3.32999e-19)
(0.000814497 2.51267e-05 -2.95167e-19)
(0.00101473 0.00041164 0)
(0.000436191 0.000121382 6.24559e-19)
(0.000895217 0.000319481 2.0918e-20)
(0.000573112 0.00015774 0)
(0.000271578 0.000446896 4.09708e-19)
(0.000261116 0.000218694 -8.44325e-20)
(0.00109419 0.000376801 -7.82269e-19)
(0.000619306 0.000106175 -1.79329e-19)
(0.000805947 7.3104e-05 -7.45069e-21)
(0.000838037 2.95989e-05 9.39588e-20)
(8.22393e-05 -8.78559e-05 -1.98177e-18)
(0.000736264 0.000382136 2.19275e-19)
(0.000663907 6.24577e-05 2.30669e-20)
(0.000703927 0.000279052 1.59656e-23)
(0.000726798 0.000458862 -4.09733e-19)
(0.000843378 3.243e-05 9.06556e-20)
(7.25644e-05 8.12784e-05 0)
(0.000653418 0.000418452 -4.65948e-20)
(0.000183913 9.75505e-05 0)
(0.000374029 0.000501901 -2.6488e-19)
(0.000309552 0.000169687 0)
(0.000672035 0.000203718 3.553e-19)
(0.000646411 0.000260616 -4.37339e-20)
(8.17645e-05 0.000105057 6.19278e-19)
(0.000874627 9.18687e-05 -1.61925e-18)
(5.87215e-05 2.27404e-05 2.57243e-19)
(0.000882744 6.5288e-05 -1.68426e-18)
(0.000837185 8.70309e-05 1.63068e-19)
(0.000807963 3.11039e-05 1.89501e-18)
(0.000811997 3.16169e-05 -1.32659e-19)
(0.000732801 7.30912e-05 0)
(0.00080616 2.75005e-05 8.9581e-19)
(0.000954411 0.000229491 -4.27193e-19)
(0.000768321 9.11084e-05 -4.83796e-19)
(0.000776626 0.00022987 -8.81408e-20)
(0.00021775 -0.000156028 -2.0799e-18)
(0.000741743 8.13894e-05 8.87644e-19)
(0.00063935 0.000596607 0)
(9.69572e-05 -0.000114054 0)
(0.00121529 0.000471238 4.97277e-19)
(0.000648544 -6.28529e-05 -3.24891e-18)
(0.00133811 0.000422089 5.76356e-19)
(0.00123558 0.000718361 -6.38573e-20)
(0.000808399 3.08664e-05 -2.10832e-19)
(0.000832204 6.76052e-05 -1.42468e-18)
(0.00081419 2.37422e-05 1.57186e-18)
(0.000816099 2.90871e-05 9.77063e-20)
(0.000668084 0.000351117 -4.40485e-20)
(0.000102277 0.000125429 5.29722e-24)
(0.000745617 -4.37741e-05 2.65144e-19)
(0.000221049 -0.000253596 -7.33031e-19)
(0.000618974 0.000187336 0)
(0.000703689 4.16878e-05 9.90616e-20)
(0.000686328 1.02377e-05 -3.80893e-19)
(0.00038703 0.000172557 3.93434e-20)
(0.000803312 0.000503919 -1.65504e-19)
(0.000149743 7.7583e-05 2.9871e-25)
(0.000809419 0.000409303 0)
(0.000976008 0.00031964 4.15857e-20)
(0.000751022 -7.91348e-05 -6.1641e-19)
(0.000346159 0.000107797 4.9789e-19)
(0.000902785 0.000424148 0)
(5.01772e-05 3.20946e-05 1.33737e-19)
(0.000480399 0.000269036 2.13988e-19)
(0.000495152 -0.000142243 -7.09635e-19)
(0.000141466 -0.000155838 -1.05794e-18)
(0.000822172 2.95472e-05 -4.8697e-19)
(0.000781128 -9.43495e-05 -1.94298e-19)
(0.000551045 0.000728044 -1.17457e-18)
(0.000843499 4.63262e-05 -6.74213e-20)
(0.000649894 -2.54429e-05 1.26865e-18)
(0.000696767 9.94316e-05 2.27829e-20)
(0.000527622 0.000211326 -1.65714e-19)
(3.30685e-05 -2.23931e-05 -8.76005e-20)
(0.00017223 -4.0397e-05 2.40656e-18)
(2.00678e-05 7.83278e-07 -1.94871e-19)
(0.000821611 0.000109768 3.6382e-19)
(0.000657193 0.000136983 0)
(0.000189715 -7.9797e-05 -1.04831e-18)
(0.000123258 -1.56068e-05 3.1297e-19)
(0.000112612 -3.49617e-05 1.12355e-23)
(0.000794206 0.000107622 -3.19326e-19)
(0.000154575 -1.04945e-05 0)
(0.000581495 0.000242601 0)
(0.000111201 0.000331701 -3.62911e-19)
(0.000856511 0.000100128 2.09488e-18)
(1.63627e-05 1.22472e-06 0)
(0.000874643 5.22155e-05 0)
(4.54881e-05 -2.61928e-05 0)
(0.000815175 4.34261e-05 -4.46345e-21)
(0.000791844 -4.92413e-05 0)
(0.0042599 0.00740631 8.07094e-20)
(0.00436136 0.0074859 1.43604e-19)
(0.000843825 -3.01323e-06 0)
(0.000781391 -5.08481e-05 8.10404e-19)
(0.000152951 0.000126939 1.49235e-19)
(0.000849548 6.99278e-05 8.07756e-19)
(0.000130705 0.000103643 2.34438e-20)
(0.000775273 -3.05492e-05 6.24912e-19)
(3.58646e-05 1.01236e-05 0)
(2.99132e-05 -1.42102e-05 -4.48567e-20)
(0.000891956 4.97124e-05 -4.86669e-19)
(3.55149e-05 -3.29301e-05 -6.69931e-19)
(0.000752261 0.000120286 -4.23326e-20)
(0.000168177 0.000164688 -1.88131e-19)
(0.000813849 2.53754e-05 0)
(0.00468261 0.00815366 9.01389e-22)
(0.000175867 0.00078648 3.33583e-19)
(0.00012114 -5.61522e-05 -9.14701e-19)
(6.36325e-05 -3.51774e-05 -1.16897e-18)
(0.000662761 1.47013e-05 1.89893e-20)
(0.000579304 0.000409725 0)
(0.000415701 0.000441374 -2.56374e-19)
(8.90437e-05 -5.86208e-05 1.18389e-18)
(0.000620487 8.99951e-07 7.70403e-20)
(4.32797e-05 2.07496e-06 4.07173e-19)
(0.000690929 -5.50055e-05 1.17189e-18)
(0.000809556 3.1844e-05 -5.96076e-19)
(6.96636e-05 -5.53304e-05 1.70955e-18)
(0.000842317 -1.85456e-05 -5.42427e-24)
(0.000639252 7.19757e-06 -3.76583e-20)
(0.000863941 6.75507e-05 0)
(0.0008348 3.63819e-05 0)
(0.00591682 0.00723789 2.59532e-19)
(2.09831e-05 -1.838e-06 -1.19599e-19)
(0.000135318 -9.69646e-05 7.731e-19)
(0.000720022 0.000119739 -6.96585e-19)
(2.42287e-05 -1.78771e-07 2.01537e-19)
(0.000610504 -3.35629e-05 -7.23972e-19)
(0.000738455 3.69113e-05 1.55839e-18)
(0.000700272 0.000159177 -3.55506e-19)
(0.000807586 -1.30943e-05 3.6041e-19)
(8.01096e-05 -3.29636e-05 1.11624e-18)
(0.000798604 7.56323e-06 -3.22763e-19)
(0.000863502 4.32562e-05 0)
(0.000537739 0.000303335 4.21092e-20)
(0.000852261 5.01066e-05 -9.45884e-19)
(2.14451e-05 2.05328e-06 9.11347e-19)
(0.000848935 4.67828e-05 9.65682e-19)
(0.000853632 2.83155e-06 -9.60283e-19)
(0.000741788 -1.23137e-06 -5.69306e-19)
(0.00051219 -6.75501e-05 -5.25755e-19)
(0.0043286 0.00745235 2.47501e-19)
(0.00422291 0.00752982 -2.78824e-19)
(0.00422151 0.0075879 2.66526e-19)
(0.00425583 0.00741057 1.97989e-19)
(0.000845327 -2.24305e-05 1.43944e-19)
(0.00447482 0.0075113 0)
(0.00440249 0.0075163 -3.869e-19)
(3.27239e-05 -1.48094e-07 -9.98224e-19)
(0.00417052 0.00746935 -6.33667e-20)
(0.00414586 0.00743231 -2.21519e-19)
(0.00603007 0.0106069 0)
(0.00654045 0.0111876 3.71431e-20)
(0.00601003 0.0105767 0)
(0.00655614 0.0112112 1.30894e-19)
(0.00599743 0.0106008 2.69667e-19)
(0.00659277 0.0112279 1.24624e-20)
(0.00593605 0.0106136 -7.76682e-19)
(0.00662299 0.0111468 8.15353e-21)
(0.00390361 0.00920136 -1.90877e-19)
(0.00418687 0.00748876 3.87397e-21)
(0.00423798 0.00755281 7.93547e-20)
(0.00415029 0.00743455 4.12053e-20)
(0.000871278 0.00018954 4.46836e-20)
(1.16778e-05 1.67157e-06 0)
(0.000692287 -0.000128925 0)
(0.000672286 4.72183e-05 0)
(0.00244403 0.0011089 4.24932e-21)
(0.00075191 -3.14819e-05 1.72623e-19)
(4.17646e-05 6.1749e-06 4.54144e-20)
(1.22299e-05 -2.89115e-05 1.65358e-18)
(0.000846932 1.68664e-05 0)
(2.88061e-05 1.32495e-05 -1.91765e-19)
(0.00014096 0.000225286 0)
(2.05828e-05 -1.09955e-06 0)
(1.6847e-05 -1.50775e-06 0)
(0.000816952 0.00013514 1.13689e-20)
(0.000809598 -1.5466e-05 1.79278e-19)
(3.55864e-05 0.000281002 -1.90523e-23)
(0.000158525 0.000274515 -1.84225e-18)
(0.000599384 0.000331055 -8.57156e-20)
(0.000895457 0.000112568 5.99841e-19)
(0.000675183 -0.000249855 6.73038e-19)
(0.000362658 0.00110857 0)
(0.00046606 0.000574086 2.71569e-18)
(9.14113e-05 0.000148215 -1.80335e-18)
(2.53054e-05 1.73142e-07 0)
(0.000819675 -5.33987e-05 3.63173e-20)
(1.72949e-05 3.77907e-05 1.64482e-18)
(0.000900149 3.03528e-05 2.71275e-19)
(-4.38863e-06 -2.72033e-05 3.80142e-18)
(0.000929989 3.94032e-05 -2.69112e-19)
(0.00136315 0.000152123 7.4745e-19)
(3.74415e-05 -1.11333e-05 8.2588e-20)
(3.86984e-05 4.49163e-06 -8.59216e-19)
(5.04215e-05 0.000145448 0)
(0.000904744 7.74665e-05 5.98533e-19)
(0.000491812 0.0003685 2.37186e-19)
(0.000686845 1.79722e-05 -3.89208e-20)
(0.000773085 -6.6821e-06 2.57095e-19)
(0.000735603 -0.00019425 0)
(0.00632091 0.0108973 -1.68125e-19)
(0.00637922 0.0109745 4.05843e-19)
(0.00616083 0.0107319 -6.18383e-19)
(0.00650147 0.0111329 -8.09954e-20)
(3.5737e-05 0.000120915 8.00692e-19)
(0.000913756 5.91219e-05 1.4739e-22)
(0.00641176 0.0110069 -3.86472e-19)
(0.00628199 0.0108472 5.48283e-19)
(0.0060809 0.0106737 -4.16777e-19)
(0.00652195 0.0111653 -6.81536e-20)
(8.14638e-05 0.000515107 -2.01856e-20)
(9.96104e-05 -0.000203899 -7.9415e-19)
(0.000690394 -2.00266e-05 -7.61758e-19)
(0.000720893 0.000220784 0)
(0.000799483 9.0134e-07 0)
(0.000184993 0.000392043 3.36357e-19)
(0.000596071 0.000520546 -5.4188e-19)
(1.18492e-05 -1.96326e-06 1.78435e-19)
(0.000202803 0.000466447 -7.38522e-19)
(0.0010035 0.000969075 -1.12707e-19)
(0.000738755 0.000166656 0)
(0.000784595 0.000181401 1.31051e-19)
(0.00635477 0.00587617 1.13141e-18)
(0.000740484 0.00112681 8.26678e-20)
(4.01589e-05 3.96352e-05 -7.4485e-20)
(0.000812744 1.91636e-05 0)
(0.000875563 2.63196e-05 -3.56996e-20)
(3.689e-05 3.84896e-06 -1.96739e-19)
(3.18422e-05 5.28487e-06 1.93029e-19)
(0.000831147 2.15753e-05 5.37353e-19)
(0.000967843 0.000107147 6.58655e-19)
(0.000587835 3.69896e-05 0)
(0.000221524 -0.000307609 -3.98081e-19)
(0.000911515 0.000149846 3.89696e-19)
(1.82123e-05 -6.69003e-05 2.03162e-19)
(0.00144423 0.000437716 -2.58057e-18)
(0.000618374 -5.39409e-06 0)
(0.000787503 0.000144741 3.75559e-19)
(9.35338e-05 0.000398929 0)
(0.00118649 0.00816444 4.62191e-19)
(0.000484668 0.000501387 -1.22478e-18)
(0.000543088 0.000999814 -1.83786e-19)
(0.00087704 1.98808e-05 -1.46079e-19)
(1.43719e-05 2.67429e-05 0)
(0.000937777 7.66521e-05 6.11863e-19)
(0.00410646 0.00739527 8.14389e-20)
(0.00417144 0.00747395 4.73146e-20)
(0.00449839 0.00751392 4.54024e-19)
(0.00444386 0.00754069 -3.28592e-19)
(0.00647539 0.01111 8.10732e-20)
(0.00391508 0.0071461 -9.58931e-22)
(0.00550663 0.007795 -5.64716e-19)
(0.00409812 0.0073717 5.21882e-21)
(0.00518707 0.00785512 5.11635e-19)
(0.00407992 0.0073401 -4.87222e-20)
(0.00495209 0.00771454 0)
(0.00408524 0.00736438 -8.56641e-20)
(0.00474081 0.0075861 4.92478e-19)
(0.00409841 0.00737597 8.75263e-20)
(0.00457344 0.00752569 0)
(0.00428344 0.00742042 1.3977e-19)
(0.00423966 0.00759939 5.79746e-19)
(0.0044663 0.00752598 -5.5354e-19)
(0.00438684 0.00750387 3.7135e-19)
(0.00422807 0.00752569 3.22845e-19)
(0.00643087 0.0110435 -4.97375e-21)
(0.00411784 0.00740139 3.11642e-20)
(0.00645891 0.0110733 0)
(2.57405e-05 6.60447e-06 -1.89902e-19)
(0.00199899 0.00654302 2.28355e-19)
(0.000841007 -3.96531e-05 1.09634e-19)
(0.000857592 1.195e-05 0)
(2.06479e-06 1.86364e-06 -3.99201e-19)
(1.00401e-05 -0.000154067 6.91943e-19)
(2.46859e-05 5.89451e-05 2.08943e-18)
(0.000822591 0.000179052 -9.00962e-20)
(0.000798642 1.0186e-05 7.06576e-19)
(2.06967e-06 -1.85975e-06 3.1006e-19)
(2.11017e-05 -3.66065e-05 -1.8461e-18)
(0.000760395 2.78669e-05 1.63194e-19)
(0.0008643 0.000124894 -3.08067e-20)
(0.000799595 -9.59807e-06 1.48176e-19)
(0.000406762 0.000677748 0)
(6.26355e-05 -0.000150248 1.15147e-18)
(0.000858511 1.11867e-05 1.5255e-19)
(2.08902e-05 2.51457e-05 0)
(0.00011229 0.000563517 -6.31335e-19)
(0.000605391 0.000598118 1.31818e-18)
(0.000327383 0.000745316 0)
(0.000799915 -1.76578e-05 0)
(0.000799449 3.64468e-06 1.17207e-18)
(1.89744e-05 5.09678e-05 -3.5157e-18)
(1.79501e-05 8.05237e-06 3.73705e-19)
(0.000115781 0.00014845 0)
(4.97718e-05 -4.20851e-05 0)
(6.36368e-05 0.000115188 2.01042e-19)
(0.000930743 0.000184344 3.50518e-19)
(0.000799728 1.61807e-05 -1.39398e-18)
(2.38473e-05 3.48455e-05 0)
(0.000484002 1.57614e-05 -6.03739e-20)
(0.000801169 4.00544e-05 -1.56382e-19)
(0.000836628 3.15404e-05 1.06196e-18)
(0.000258306 0.000543134 6.32346e-19)
(0.000867646 0.000155411 0)
(2.17851e-05 -2.57389e-05 5.38801e-19)
(3.1052e-06 -7.69412e-06 -3.20039e-19)
(0.000999051 2.95605e-05 0)
(0.00103233 0.00225815 0)
(0.000958557 -1.06226e-05 0)
(0.000997611 0.000205004 4.27286e-19)
(0.000815651 -3.09196e-05 -2.83689e-19)
(0.000923353 0.000110852 -6.84945e-19)
(0.000799583 3.31026e-06 0)
(4.27138e-05 7.14098e-05 -1.71603e-19)
(0.000173986 0.000328644 1.08134e-18)
(0.000797457 1.93942e-05 -1.23365e-23)
(0.00108316 0.000207293 -6.6916e-19)
(0.00109035 0.000123264 0)
(2.86399e-06 7.62982e-06 2.51086e-19)
(2.04523e-05 -1.67857e-05 -1.94357e-19)
(0.000591897 3.67308e-05 6.95182e-21)
(1.88174e-05 -8.83332e-05 0)
(0.00105253 0.000252367 9.50237e-19)
(0.00502889 0.00974975 -2.83034e-19)
(0.00312082 0.00962056 1.27232e-18)
(5.28179e-05 -0.000110653 -1.91366e-19)
(6.29465e-05 -7.73874e-05 1.85997e-18)
(0.00119253 0.000240068 1.67285e-19)
(0.00132923 0.00108082 2.34131e-19)
(0.000813469 1.62632e-07 -7.32027e-19)
(0.000202289 0.00095248 -2.38444e-19)
(0.000808666 0.000923203 -2.18625e-19)
(0.000799594 -3.44745e-06 0)
(8.7267e-05 0.000635682 0)
(9.61703e-05 0.000284314 -4.14767e-23)
(0.00072173 -3.85841e-05 -1.68294e-23)
(0.000820035 5.98142e-05 1.50688e-19)
(0.00262984 0.00206491 -1.23158e-18)
(0.00175898 0.00924108 -1.17181e-19)
(0.000833313 4.54396e-05 4.92307e-19)
(0.00632836 0.00404366 -1.75916e-19)
(0.00672096 0.0115578 -1.36521e-20)
(0.00473436 0.00784398 4.93195e-21)
(0.000800943 1.44595e-05 -2.18821e-18)
(0.000833389 1.39523e-05 3.18418e-24)
(1.05286e-05 -8.69616e-06 -3.48099e-19)
(4.70191e-05 9.26745e-05 -3.49356e-19)
(6.94051e-05 0.000274427 8.75499e-19)
(1.21817e-05 1.73375e-05 4.9052e-19)
(8.97386e-05 0.000233673 3.69841e-19)
(0.000822431 2.77514e-05 0)
(0.00534804 0.00949234 1.95035e-20)
(0.00153176 0.000628763 -2.61085e-20)
(0.000820016 3.18124e-05 3.59785e-19)
(4.21597e-05 -8.62364e-05 0)
(0.00184787 0.000738403 5.46157e-19)
(1.05682e-05 8.46332e-06 -2.70217e-19)
(3.53818e-05 3.00133e-05 9.72048e-20)
(0.00132192 0.00139213 6.36653e-19)
(0.000736176 4.58245e-05 1.83151e-19)
(6.67269e-06 -2.08321e-06 -1.70244e-19)
(0.00206484 0.00155359 -1.0562e-18)
(0.000126589 0.000182015 -8.18915e-19)
(0.0039214 0.0084879 -1.09113e-18)
(6.74387e-06 1.90773e-06 8.81631e-20)
(0.0001509 -0.000156477 -1.255e-18)
(5.38796e-05 -5.88136e-05 4.05745e-20)
(0.00152934 0.000974933 0)
(0.00103615 0.00013931 -4.09441e-22)
(0.000454568 0.000850379 -4.02203e-20)
(0.00080243 2.63959e-05 -2.33867e-19)
(8.71653e-05 0.00018824 7.36219e-19)
(3.72028e-05 -6.48827e-05 4.04115e-19)
(1.94324e-05 1.6295e-05 -9.47323e-20)
(3.32342e-05 9.5941e-05 -3.20361e-19)
(0.000202362 -0.000288067 -5.44918e-19)
(0.00325218 0.00345513 2.80049e-21)
)
;

boundaryField
{
    back
    {
        type            empty;
    }
    ingreso
    {
        type            fixedValue;
        value           uniform (0.0008 0 0);
    }
    salida
    {
        type            zeroGradient;
    }
    front
    {
        type            empty;
    }
    defaultFaces
    {
        type            noSlip;
    }
}


// ************************************************************************* //
