/*--------------------------------*- C++ -*----------------------------------*\
  =========                 |
  \\      /  F ield         | OpenFOAM: The Open Source CFD Toolbox
   \\    /   O peration     | Website:  https://openfoam.org
    \\  /    A nd           | Version:  7
     \\/     M anipulation  |
\*---------------------------------------------------------------------------*/
FoamFile
{
    version     2.0;
    format      ascii;
    class       volScalarField;
    location    "43";
    object      p;
}
// * * * * * * * * * * * * * * * * * * * * * * * * * * * * * * * * * * * * * //

dimensions      [0 2 -2 0 0 0 0];

internalField   nonuniform List<scalar> 
591
(
0.000123946
0.000123964
0.000123973
0.000123929
0.00012393
0.000124005
0.000124001
0.000123962
0.000117007
0.000123975
0.000124144
0.000122878
0.000123974
0.000119756
0.000123963
0.000124018
0.00012392
0.000124003
0.000121991
0.000123346
0.000123937
-3.52026e-06
0.000124143
0.000123941
0.000124102
0.000123961
0.000124046
0.000124062
0.000123973
0.00012399
0.000124121
0.000124098
0.000124116
0.000124115
0.000124117
0.000123448
0.000124113
0.000123944
0.000124138
0.000124057
0.000124034
0.00012411
0.00012397
0.000123989
0.000124107
0.000124125
0.000119276
0.000124128
0.000123977
0.000124092
0.000124067
0.000124103
2.39367e-05
3.05876e-05
4.78513e-05
0.000123976
0.000124132
0.000124116
0.000124126
0.000123947
0.000124031
0.000123966
0.000123967
0.000124018
0.000122597
0.000123966
0.000123971
0.000124123
0.000120766
0.000123982
0.000123974
0.00012413
0.000124092
0.000124111
0.000124116
0.000124093
0.000123941
0.000124127
0.000123945
0.000123871
0.000123723
0.000124132
0.000124093
0.000124065
0.000124139
0.000123955
0.000124048
0.000124122
0.000124085
0.000123839
0.000124098
0.000124035
0.000124057
0.00012395
0.000124137
0.000124092
0.000123653
0.000123551
0.000123692
0.000124142
0.000124053
0.000123963
0.000124146
0.000123931
0.000124145
0.00012397
0.000123963
0.000124096
0.000124136
0.00012414
0.000124026
0.000124114
0.000123983
0.000124121
0.00012414
0.000124117
0.000124067
0.000124071
0.000123625
0.000124034
0.000123968
0.000123975
0.000124027
0.000123953
0.000124111
0.000120245
0.000124144
0.000124119
0.000123723
0.000124117
0.000123959
0.000123647
0.000124079
0.000124076
0.00012412
0.000123977
0.000122632
0.000124145
0.000123963
0.000123626
0.000123692
0.000124047
0.000124123
0.000124138
0.000124133
7.61232e-06
3.67836e-06
2.07377e-06
3.81567e-05
3.66997e-05
5.65854e-06
3.83032e-05
1.57422e-05
3.72803e-05
1.78077e-05
0.000123967
0.000123955
0.000124131
0.000124128
0.000124134
0.000124132
0.000124126
0.000124124
0.000124129
0.000124129
0.00012409
0.000124135
0.000124131
0.000124136
0.000124068
0.000123429
0.000124138
0.00012217
0.000124112
0.000124119
0.000124062
0.000123975
0.000124119
0.00012413
0.000124126
0.000123537
0.000122518
0.000123089
0.000123495
0.000124123
0.000124128
0.000124061
0.000123941
0.000124119
0.000123003
0.000123353
0.000123942
0.000124118
0.000123813
0.000124112
0.000124121
0.000124094
0.000123784
0.00012393
0.000124119
0.00012413
0.000124124
0.000123919
0.000124107
0.000123914
0.000124137
0.000123963
0.00012396
0.000124134
0.00012375
0.000123931
0.000123974
0.000123596
0.000124084
0.000123743
0.000124029
0.000124033
0.00012411
0.000123512
0.000124021
0.00012392
0.000123927
0.000124093
0.00012385
0.000124011
0.00012392
0.000123828
0.00012392
0.000124139
0.000123893
0.000124133
0.000123975
0.000124109
0.000123963
0.000123962
0.00012414
0.000123863
0.00012413
0.000123854
0.0001239
0.00012397
0.000123946
0.000123979
0.000123967
0.00012373
0.000123938
0.000123886
0.000124101
0.000123959
0.000123797
0.000124088
0.000123354
0.000123898
0.000123253
0.000123128
0.000123952
0.000123918
0.000123952
0.000123948
0.000123907
0.000124138
0.000123995
0.000124079
0.000123998
0.000123999
0.000124012
0.000124088
0.000123742
0.000124134
0.00012378
0.000123672
0.000123985
0.000124109
0.000123691
0.000124133
0.000124035
0.000124076
0.000124091
0.000123979
0.00012394
0.000123755
0.000123914
0.000123931
0.000123986
0.000124033
0.000124106
0.000124118
0.000124127
0.000123894
0.000123993
0.000124112
0.00012412
0.000124117
0.000123916
0.000124128
0.000124
0.000124104
0.000123882
0.000124129
0.000123873
0.000124108
0.000124007
0.000123941
1.16404e-05
2.19095e-05
0.000123909
0.000123969
0.000124136
0.000123902
0.000124137
0.000123981
0.000124129
0.000124108
0.000123859
0.000124103
0.000123936
0.000124132
0.000123973
-2.10361e-07
0.000123816
0.000124111
0.000124108
0.00012382
0.000123948
0.000123984
0.000124103
0.000123882
0.000124123
0.000124015
0.000123967
0.000124101
0.000123928
0.000123854
0.00012388
0.00012398
4.74454e-05
0.000124118
0.000124101
0.000123962
0.000124124
0.000124041
0.000123986
0.000123963
0.000123961
0.000124111
0.000123991
0.000123895
0.000123999
0.000123897
0.000124124
0.000123905
0.000123954
0.000123993
0.000124076
1.9871e-05
2.73e-05
3.4295e-05
9.63583e-06
0.000123943
3.30546e-05
2.60113e-05
0.000124121
1.90724e-05
1.70309e-05
3.81873e-05
7.56336e-06
3.9941e-05
5.59471e-06
4.08359e-05
3.69017e-06
4.28195e-05
1.8806e-06
3.63925e-05
2.31888e-05
2.94377e-05
1.4993e-05
0.000123816
0.000124131
0.000124012
0.000124018
0.000120937
0.000124069
0.000124126
0.000124098
0.000123915
0.000124132
0.000124127
0.000124114
0.000124111
0.00012388
0.000123962
0.00012411
0.000124116
0.000123955
0.000123838
0.000123867
0.000123451
0.000123907
0.000124142
0.000124117
0.000123974
0.000124139
0.000123819
0.000123983
0.000123777
0.000122902
0.000124112
0.000124122
0.000124141
0.000123827
0.000123995
0.000123778
0.000123983
0.000123969
2.60455e-05
2.18701e-05
3.30337e-05
1.16189e-05
0.000124146
0.000123824
1.98169e-05
2.82542e-05
3.5602e-05
9.58155e-06
0.000123957
0.000124067
0.000123919
0.000123927
0.000123972
0.000124074
0.000123867
0.000124108
0.000124039
0.000123146
0.000123932
0.000123899
5.93269e-05
0.00012327
0.000124136
0.000123951
0.000123855
0.000124125
0.000124128
0.000123938
0.000123733
0.000123967
0.000124041
0.000123814
0.000124084
0.000122955
0.000123909
0.000123909
0.000124083
0.000100861
0.000123932
0.000123534
0.000123888
0.000124137
0.000123785
1.08947e-05
2.11106e-05
3.5367e-05
2.82032e-05
1.36684e-05
5.71733e-08
4.20633e-05
2.69067e-06
4.01527e-05
4.75856e-06
3.94159e-05
6.80952e-06
3.8624e-05
8.85296e-06
3.72899e-05
1.36733e-05
3.17241e-05
3.05873e-05
2.39368e-05
2.52559e-05
1.77682e-05
1.29385e-05
1.57148e-05
0.00012413
0.000102475
0.000123944
0.000123884
0.000124134
0.000124028
0.00012414
0.00012386
0.000124001
0.000124104
0.000124099
0.000124118
0.000123865
0.000123976
0.000123847
0.000124068
0.000123912
0.000124135
0.000123994
0.000123825
0.000123829
0.000123988
0.000123979
0.000124141
0.000124132
0.000124138
0.000124103
0.000124142
0.000123778
0.000123968
0.000124136
0.000123911
0.000124043
0.000123968
0.00012399
0.000123844
0.000124102
0.000124101
0.000123416
0.000121411
0.000123146
0.00012369
0.000123968
0.000123794
0.000123984
0.00012414
0.000124098
0.000123973
0.000123579
0.000123562
0.000124136
0.000124105
0.000123991
0.000124072
0.000123615
5.83373e-05
4.01121e-05
0.000124077
0.000124094
0.000123458
0.000122798
0.000123951
0.000123676
0.000123421
0.00012397
0.00012385
0.00012412
0.000123995
0.000124024
0.000119041
5.44745e-05
0.000123991
8.12359e-05
1.86366e-06
-3.804e-07
0.000123961
0.000123932
0.000124104
0.000124141
0.000124128
0.000124136
0.000124131
0.000123948
-2.30539e-06
0.000122879
0.000123982
0.000124084
0.000122051
0.000124134
0.000124134
0.000122336
0.000124061
0.000124106
0.000121724
0.000124134
7.63857e-05
0.000124133
0.000123679
0.000124098
0.000122425
0.000123669
0.000123713
0.000123995
0.000124137
0.000124091
0.000124133
0.000124144
0.000123976
0.000116226
)
;

boundaryField
{
    back
    {
        type            empty;
    }
    ingreso
    {
        type            zeroGradient;
    }
    salida
    {
        type            fixedValue;
        value           uniform 0;
    }
    front
    {
        type            empty;
    }
    defaultFaces
    {
        type            zeroGradient;
    }
}


// ************************************************************************* //
