/*--------------------------------*- C++ -*----------------------------------*\
  =========                 |
  \\      /  F ield         | OpenFOAM: The Open Source CFD Toolbox
   \\    /   O peration     | Website:  https://openfoam.org
    \\  /    A nd           | Version:  7
     \\/     M anipulation  |
\*---------------------------------------------------------------------------*/
FoamFile
{
    version     2.0;
    format      ascii;
    class       volVectorField;
    location    "43";
    object      U;
}
// * * * * * * * * * * * * * * * * * * * * * * * * * * * * * * * * * * * * * //

dimensions      [0 1 -1 0 0 0 0];

internalField   nonuniform List<vector> 
591
(
(0.000815832 -3.7304e-05 1.21851e-18)
(0.000798736 -3.17342e-05 -6.62898e-19)
(0.000854209 -4.12527e-05 5.70145e-20)
(0.000845113 1.07526e-06 -1.49235e-19)
(0.000828571 1.40349e-05 2.25013e-19)
(0.000795874 -3.83838e-05 -1.38349e-19)
(0.000544841 -0.000353091 8.05272e-19)
(0.000798808 4.29886e-07 2.06726e-18)
(0.00574573 0.00249021 9.87792e-19)
(0.000788503 -1.67036e-05 2.43586e-18)
(5.44552e-05 0.000175737 1.21855e-18)
(0.000908548 0.00134972 9.40823e-21)
(0.000794645 8.70524e-06 1.29812e-18)
(0.00159576 0.0023731 -7.87823e-19)
(0.000801229 8.39462e-06 -4.38068e-19)
(9.94086e-05 -0.00023698 2.54543e-22)
(0.000132949 0.000673877 7.05387e-19)
(0.000822896 3.80534e-05 -4.90378e-19)
(0.00195032 0.000378239 4.72949e-19)
(0.00135164 0.000265991 -2.47282e-19)
(0.000832302 2.9857e-06 3.72244e-19)
(0.00340061 0.00656199 -8.13683e-20)
(3.22203e-05 7.4258e-05 2.71066e-19)
(0.000829673 -1.44364e-06 -4.51114e-19)
(1.5577e-05 -2.02447e-05 3.59113e-19)
(0.000759675 2.7698e-05 0)
(9.10906e-05 0.000479157 1.60024e-19)
(0.000523994 2.35502e-05 -1.78937e-19)
(0.000748096 5.12664e-05 1.15017e-18)
(0.000818441 2.57898e-05 5.83595e-19)
(6.38086e-05 -2.00061e-06 -3.67717e-24)
(4.12387e-05 -5.13569e-05 3.52359e-19)
(4.28844e-05 -3.72503e-06 -4.64174e-20)
(5.14436e-05 -1.09218e-05 0)
(6.0262e-05 -1.38628e-05 1.13192e-18)
(0.00116937 0.000128116 1.7998e-19)
(3.69185e-05 -6.52827e-06 4.47377e-20)
(0.000826059 1.41294e-05 3.66937e-23)
(3.14636e-05 4.82433e-05 2.66162e-19)
(4.00127e-05 -0.000131576 -8.55106e-19)
(0.00059178 -0.000198662 9.58956e-19)
(3.03042e-05 -8.44622e-06 4.55058e-20)
(0.00079308 -4.9448e-06 -1.57043e-18)
(0.000825353 2.78857e-05 -6.82545e-19)
(2.14156e-05 -1.01138e-05 0)
(6.01985e-05 9.48947e-06 8.52298e-20)
(0.00133193 0.0045153 8.93356e-19)
(8.21048e-05 2.05068e-05 8.64046e-20)
(0.000795411 2.10975e-05 0)
(0.00037078 -0.000170039 6.78155e-19)
(0.000374116 0.000278602 5.12137e-21)
(0.000387282 6.40336e-05 -1.0043e-18)
(0.00634757 0.0109416 -7.68391e-19)
(0.00622443 0.0107963 1.52835e-20)
(0.00561303 0.0103799 1.45587e-18)
(0.000810496 1.04198e-05 0)
(7.17355e-05 3.54378e-05 0)
(0.000320093 2.75002e-05 1.04656e-23)
(6.86079e-05 1.36519e-05 -3.4663e-19)
(0.000821572 -7.66917e-06 0)
(0.00061838 2.75651e-05 3.1774e-19)
(0.000821689 -2.09898e-06 2.2127e-18)
(0.000783905 1.19731e-05 -5.46424e-19)
(0.000794902 1.8963e-05 -3.15935e-19)
(0.00172011 0.000470959 5.43033e-19)
(0.000788478 2.68455e-06 -1.15469e-18)
(0.000819663 2.41573e-06 -5.24323e-19)
(8.90911e-05 1.46421e-06 -1.73497e-19)
(0.000681052 0.00228244 0)
(0.000823068 2.43506e-05 0)
(0.000763384 1.57835e-05 -1.38324e-18)
(4.17931e-05 1.84084e-05 0)
(0.000283952 0.000275301 3.26985e-19)
(4.692e-05 -1.91585e-05 0)
(4.73709e-05 -6.49554e-06 1.59552e-19)
(2.58711e-05 -5.21774e-05 -3.36849e-20)
(0.00077565 6.91334e-05 2.47237e-19)
(4.85555e-05 1.28307e-05 0)
(0.00078942 5.69399e-05 4.47229e-19)
(0.000757949 0.000296857 2.1083e-19)
(0.000964398 5.97101e-05 -3.98162e-20)
(4.68526e-05 2.61814e-05 -4.52087e-20)
(7.04179e-06 -3.4561e-05 0)
(0.000424672 0.000221941 1.70263e-19)
(2.63706e-06 2.93441e-05 0)
(0.000769166 2.86709e-05 -6.09908e-19)
(0.000575207 -0.000118705 0)
(7.13512e-05 1.02891e-06 -1.74565e-19)
(5.15132e-06 -4.67493e-05 0)
(0.000816176 0.000247009 -3.41443e-19)
(4.95307e-06 -2.11378e-05 0)
(0.000416666 0.000324672 -1.27204e-23)
(0.000516773 0.00011547 0)
(0.000796139 4.95219e-05 -3.52088e-24)
(3.04801e-06 1.93184e-05 -4.21923e-20)
(0.000440533 -8.93301e-08 1.76447e-18)
(0.00102269 7.3132e-05 4.16259e-20)
(0.000898225 4.17583e-05 6.40892e-22)
(0.000729376 0.00065637 2.6962e-19)
(5.8586e-06 5.86065e-05 0)
(6.10191e-06 -8.13547e-05 -3.12531e-19)
(1.1617e-06 -0.000153348 -1.09923e-18)
(2.76076e-06 9.16401e-05 -5.96366e-19)
(0.000668411 -1.16448e-05 0)
(6.47138e-06 0.000117841 0)
(0.000795904 1.31897e-05 2.21684e-18)
(0.000772052 2.03698e-05 1.52358e-18)
(0.000407652 -5.11421e-05 0)
(4.82479e-05 0.000227193 -8.95528e-19)
(-1.35869e-06 0.000189816 4.96522e-19)
(7.1682e-05 0.000440132 6.25232e-19)
(0.00029892 9.91237e-05 -9.375e-19)
(0.000803477 1.65237e-05 1.36261e-19)
(0.000264466 -1.90871e-05 5.31487e-19)
(3.71071e-06 4.06364e-05 0)
(2.9492e-05 0.00030488 -1.09404e-18)
(0.000315254 0.000328004 -1.61771e-19)
(5.88332e-06 -6.36609e-05 1.46657e-19)
(0.000664341 0.000805724 0)
(0.000362143 0.000391866 5.74659e-20)
(0.000807373 3.69682e-06 1.07142e-18)
(0.000793593 -2.73843e-06 -2.68558e-18)
(8.48172e-06 -0.000100672 0)
(0.000708149 -2.37331e-05 -1.12384e-19)
(0.000319285 -8.03077e-05 1.24388e-18)
(0.00266511 0.000792665 -3.35935e-19)
(2.0607e-06 0.000149113 -6.13203e-19)
(-2.209e-06 0.000182338 1.61938e-18)
(0.000775707 1.92237e-05 -3.89576e-20)
(7.00723e-05 -1.01918e-05 -7.50544e-19)
(0.000794522 2.36411e-05 -3.8958e-19)
(0.000823551 2.66376e-05 -4.10159e-20)
(4.80455e-05 0.000353489 -5.96809e-19)
(0.000473669 7.80537e-05 -4.94167e-19)
(5.45315e-05 -2.46381e-06 1.56232e-19)
(0.000821717 1.20036e-05 -1.07917e-18)
(0.00159459 0.000223493 -1.13633e-18)
(2.64078e-06 7.28735e-05 4.96462e-19)
(0.000803632 1.19604e-05 -4.96367e-19)
(0.000892452 0.000539231 -7.85469e-20)
(0.000134071 0.000816623 0)
(0.000565523 6.67908e-05 0)
(0.000272526 6.18081e-05 -1.61047e-18)
(6.67665e-05 6.3125e-05 -1.37476e-18)
(3.37983e-05 2.30047e-05 0)
(0.0042463 0.00740028 -1.01967e-20)
(0.0042251 0.00737237 3.16475e-20)
(0.00442709 0.00757571 -5.00419e-21)
(0.004207 0.00773579 0)
(0.00419962 0.0076009 5.77225e-19)
(0.004244 0.00740112 -9.19244e-20)
(0.00421029 0.00804427 4.84355e-19)
(0.0042889 0.00742042 0)
(0.00420786 0.0085386 6.16681e-19)
(0.00432632 0.00744837 2.2394e-19)
(0.000811298 -2.25457e-06 -1.37117e-18)
(0.000756787 4.99428e-05 0)
(0.000217181 6.39516e-05 1.27746e-19)
(5.45949e-05 1.8576e-05 8.72278e-20)
(8.19188e-05 4.96666e-05 6.8035e-19)
(0.000110604 4.70459e-05 -3.41833e-19)
(0.00010605 1.09512e-05 0)
(5.29838e-05 6.62585e-06 8.18748e-20)
(0.000204851 0.000141532 0)
(0.000169399 5.25044e-05 -5.24498e-20)
(0.00033842 0.000228607 -5.09475e-21)
(5.92294e-05 4.70077e-05 -4.37869e-19)
(9.53982e-05 3.25982e-05 -8.52888e-20)
(9.39882e-05 6.72199e-05 1.31257e-21)
(0.000249993 0.000370846 -6.66454e-19)
(0.000114871 0.0010323 0)
(4.48477e-05 5.65302e-05 3.43229e-19)
(0.000207541 0.00177202 0)
(0.000206684 0.000258624 7.04967e-19)
(4.29158e-05 -4.88351e-06 1.11468e-19)
(0.000472553 0.000168262 -1.7238e-19)
(0.000749434 2.80473e-05 -1.92513e-18)
(4.73015e-05 -5.86349e-07 4.17127e-24)
(0.000153842 3.27767e-05 2.24694e-19)
(0.000241258 0.000102517 -8.99752e-20)
(0.000878561 0.000710283 3.35084e-19)
(0.000727192 0.00162425 -9.23071e-21)
(0.000380826 0.00142736 -9.40157e-21)
(0.00101783 0.000555859 0)
(0.000110071 -1.18517e-05 1.11929e-18)
(0.000122195 2.32702e-05 -4.43368e-20)
(0.000435284 -0.000275648 -1.13613e-18)
(0.000804172 3.07495e-05 0)
(0.000184565 1.68614e-05 3.63462e-19)
(0.000299893 0.0013287 0)
(0.0010502 0.000760992 -7.30524e-20)
(0.000822533 3.82882e-05 -1.86296e-19)
(8.56814e-05 -1.9167e-05 -3.00138e-19)
(0.000813563 0.000318341 -2.08151e-20)
(6.73764e-05 -2.17994e-05 -5.99813e-19)
(0.000226076 0.000181682 8.64258e-20)
(0.000227272 0.000312082 -3.45161e-19)
(0.000874369 0.000241463 0)
(0.000802112 4.71812e-05 0)
(0.00026013 0.00014705 1.76927e-19)
(0.000234792 1.39698e-05 4.66486e-24)
(0.000184561 0.000211532 0)
(0.000284083 0.000653258 -5.55931e-21)
(0.000336288 1.17931e-05 0)
(0.000351495 0.000601332 0)
(0.000112651 8.86954e-05 -1.34735e-21)
(0.000810309 1.39257e-05 -9.3439e-19)
(0.000811195 1.12125e-05 7.7726e-19)
(0.000132408 6.49413e-05 -1.49927e-19)
(0.000944894 0.000153294 8.51161e-20)
(0.000828177 4.67639e-05 3.32919e-19)
(0.000805608 1.96818e-05 -2.94498e-19)
(0.00100141 0.000405725 0)
(0.000430444 0.000126097 6.24741e-19)
(0.000886974 0.000316719 2.09242e-20)
(0.00056212 0.000162113 0)
(0.000272034 0.000444666 4.09809e-19)
(0.000259804 0.000223529 -8.44547e-20)
(0.00109281 0.000375756 -7.82281e-19)
(0.000606814 0.000111219 -1.79385e-19)
(0.00079626 7.52992e-05 -7.46081e-21)
(0.000829351 2.85194e-05 9.3628e-20)
(9.60485e-05 -8.96396e-05 -1.98234e-18)
(0.000729846 0.000381978 2.19335e-19)
(0.000651517 6.2465e-05 2.30711e-20)
(0.000695748 0.000277121 1.57963e-23)
(0.000719219 0.000454627 -4.09751e-19)
(0.000836553 3.85605e-05 9.06852e-20)
(7.50493e-05 8.60489e-05 0)
(0.000645818 0.000416296 -4.65922e-20)
(0.000184856 0.000104384 0)
(0.000371087 0.000503511 -2.64941e-19)
(0.000309316 0.000175299 0)
(0.00066454 0.00020254 3.55409e-19)
(0.000637886 0.000263426 -4.37467e-20)
(8.28377e-05 0.000108226 6.19456e-19)
(0.000872682 9.58498e-05 -1.63146e-18)
(6.21407e-05 2.52685e-05 2.57319e-19)
(0.000872866 5.51278e-05 -1.66139e-18)
(0.000827373 7.96896e-05 1.61715e-19)
(0.000801597 2.4072e-05 1.91365e-18)
(0.000799152 2.29987e-05 -1.30965e-19)
(0.000720455 7.40765e-05 0)
(0.000806766 3.1523e-05 8.8271e-19)
(0.000940937 0.000230249 -4.27328e-19)
(0.000756765 8.42265e-05 -4.83864e-19)
(0.000770178 0.000226887 -8.81687e-20)
(0.000230266 -0.000132773 -2.08039e-18)
(0.000728338 8.60978e-05 8.86743e-19)
(0.000635799 0.000596717 0)
(0.000115245 -0.000106644 0)
(0.00119782 0.000469185 4.97353e-19)
(0.000712537 -7.64848e-05 -3.23427e-18)
(0.00131961 0.000430896 5.75885e-19)
(0.00123627 0.000718512 -6.39098e-20)
(0.000796894 3.92219e-05 -2.11495e-19)
(0.000824028 6.99921e-05 -1.42413e-18)
(0.000812617 1.74653e-05 1.55984e-18)
(0.000812141 2.95343e-05 9.64203e-20)
(0.000664336 0.000347484 -4.4061e-20)
(0.000104513 0.000132367 6.33263e-24)
(0.000730549 -5.48116e-05 2.65243e-19)
(0.000234612 -0.00022601 -7.34901e-19)
(0.000609414 0.000189659 0)
(0.000690088 3.17313e-05 9.90942e-20)
(0.000668237 1.01811e-05 -3.81016e-19)
(0.000381908 0.000176848 3.93542e-20)
(0.000792656 0.000499548 -1.65548e-19)
(0.000152648 8.36745e-05 2.77036e-25)
(0.000804998 0.000401031 0)
(0.000966708 0.00032175 4.15984e-20)
(0.000737619 -8.86898e-05 -6.16626e-19)
(0.000341609 0.000113168 4.98014e-19)
(0.000897439 0.00042054 0)
(5.314e-05 3.46864e-05 1.33777e-19)
(0.000473003 0.000272015 2.14047e-19)
(0.000465207 -0.000118379 -7.0963e-19)
(0.00016431 -0.000142879 -1.05956e-18)
(0.000815527 2.10311e-05 -4.76572e-19)
(0.00079374 -0.000108859 -1.93847e-19)
(0.00056054 0.000724136 -1.17488e-18)
(0.000834744 4.5284e-05 -6.70705e-20)
(0.000701762 -3.00669e-05 1.26113e-18)
(0.000680104 9.89637e-05 2.27903e-20)
(0.000518557 0.000215529 -1.65759e-19)
(3.79541e-05 -2.40749e-05 -8.7626e-20)
(0.000184201 -3.12721e-05 2.40728e-18)
(2.52302e-05 9.22865e-07 -1.94914e-19)
(0.000804304 0.000100607 3.62243e-19)
(0.000643687 0.000138719 0)
(0.00019788 -6.43628e-05 -1.04857e-18)
(0.000128288 -8.12883e-06 3.13056e-19)
(0.000123217 -3.25142e-05 3.35066e-24)
(0.000786186 0.000111371 -3.19175e-19)
(0.000158163 -5.74339e-06 0)
(0.000574361 0.000243716 0)
(0.000111164 0.000336376 -3.63006e-19)
(0.000848695 9.8552e-05 2.10998e-18)
(2.05653e-05 1.53518e-06 0)
(0.000862679 4.77617e-05 0)
(5.04403e-05 -2.65771e-05 0)
(0.000812075 3.55429e-05 -4.46832e-21)
(0.000798595 -5.93083e-05 0)
(0.00425869 0.00740559 8.0698e-20)
(0.00436237 0.00748505 1.43496e-19)
(0.000842229 3.00026e-06 0)
(0.000767841 -5.59917e-05 8.12757e-19)
(0.000153649 0.000132344 1.49275e-19)
(0.000843491 7.45421e-05 8.01065e-19)
(0.000132932 0.00010891 2.34505e-20)
(0.000764383 -3.80077e-05 6.26203e-19)
(3.85554e-05 1.13596e-05 0)
(3.38939e-05 -1.58056e-05 -4.48702e-20)
(0.000879774 5.12169e-05 -4.85667e-19)
(4.13786e-05 -3.48382e-05 -6.70082e-19)
(0.000743944 0.000118844 -4.23462e-20)
(0.000167913 0.00016983 -1.88182e-19)
(0.000811068 1.87775e-05 0)
(0.00468136 0.00815289 8.94123e-22)
(0.000168426 0.000784745 3.33757e-19)
(0.000130756 -5.0644e-05 -9.14963e-19)
(7.00456e-05 -3.51758e-05 -1.16929e-18)
(0.000713042 1.67988e-05 1.89924e-20)
(0.000574688 0.000412907 0)
(0.000408104 0.000437874 -2.5644e-19)
(0.000101239 -5.49186e-05 1.1842e-18)
(0.000670455 2.03923e-06 7.65601e-20)
(4.6431e-05 2.48238e-06 4.07278e-19)
(0.000668544 -5.91622e-05 1.1723e-18)
(0.000807456 2.99743e-05 -5.93967e-19)
(8.03646e-05 -5.53899e-05 1.70993e-18)
(0.000839573 -7.0293e-06 -4.45272e-24)
(0.000689244 8.71566e-06 -3.76723e-20)
(0.000857831 6.20213e-05 0)
(0.000822264 3.23579e-05 0)
(0.0059212 0.00723788 2.59149e-19)
(2.64435e-05 -5.77844e-07 -1.19622e-19)
(0.000157002 -8.60793e-05 7.73266e-19)
(0.000712115 0.000121672 -6.96816e-19)
(3.0226e-05 -5.21204e-07 2.01564e-19)
(0.000588177 -2.82517e-05 -7.24216e-19)
(0.000729057 3.16695e-05 1.55892e-18)
(0.000692604 0.000156918 -3.55615e-19)
(0.000806262 -1.49788e-05 3.55293e-19)
(8.90931e-05 -3.06798e-05 1.11659e-18)
(0.000793688 9.20538e-06 -3.1957e-19)
(0.00085699 4.65071e-05 0)
(0.000531377 0.000302986 4.2121e-20)
(0.000843418 4.69685e-05 -9.35887e-19)
(2.66087e-05 9.71013e-07 9.11438e-19)
(0.000838763 4.44818e-05 9.55481e-19)
(0.000845786 -9.28775e-06 -9.59186e-19)
(0.000722525 2.96284e-06 -5.69513e-19)
(0.000495873 -5.78084e-05 -5.25926e-19)
(0.00432916 0.0074517 2.47303e-19)
(0.00422515 0.00752996 -2.48053e-19)
(0.00422206 0.0075877 2.66983e-19)
(0.00425505 0.00741031 1.97899e-19)
(0.000845948 -1.14148e-05 1.44289e-19)
(0.00447566 0.00751114 0)
(0.00440327 0.00751638 -3.86455e-19)
(3.97045e-05 -2.17411e-07 -9.98421e-19)
(0.00417101 0.00747043 -6.336e-20)
(0.0041467 0.00743358 -2.21536e-19)
(0.00602918 0.0106059 0)
(0.00654019 0.0111883 3.70922e-20)
(0.00600894 0.0105757 0)
(0.00655592 0.011211 1.30559e-19)
(0.005996 0.0106 2.69714e-19)
(0.00659188 0.011227 1.24651e-20)
(0.00593449 0.0106132 -7.76745e-19)
(0.00662211 0.0111461 8.18114e-21)
(0.00390236 0.00920321 -1.90944e-19)
(0.004188 0.00748961 3.88669e-21)
(0.00423928 0.00755356 7.93416e-20)
(0.00415109 0.00743557 4.1206e-20)
(0.000857986 0.000183687 4.46981e-20)
(1.4863e-05 2.11601e-06 0)
(0.000671054 -0.000143118 0)
(0.000697494 3.96946e-05 0)
(0.00243865 0.00111647 4.23112e-21)
(0.000744037 -2.92764e-05 1.72692e-19)
(4.49387e-05 7.17653e-06 4.5428e-20)
(1.65233e-05 -3.18337e-05 1.65334e-18)
(0.000840345 2.03869e-05 0)
(3.10544e-05 1.46788e-05 -1.91822e-19)
(0.000143067 0.000229191 0)
(2.65844e-05 -1.25121e-06 0)
(2.19935e-05 -1.825e-06 0)
(0.000804763 0.000127643 1.1356e-20)
(0.000809581 -9.32066e-06 1.77652e-19)
(3.38593e-05 0.000297362 -1.83194e-23)
(0.000160174 0.00027718 -1.84274e-18)
(0.000594269 0.000334992 -8.57391e-20)
(0.000892443 0.000124382 6.00295e-19)
(0.000699689 -0.000327175 6.72832e-19)
(0.000346036 0.0011116 0)
(0.000457094 0.000568226 2.71626e-18)
(9.40081e-05 0.000152269 -1.80356e-18)
(3.20404e-05 3.7592e-07 0)
(0.000816784 -4.12241e-05 3.60791e-20)
(1.91961e-05 4.10059e-05 1.6453e-18)
(0.000899434 2.72293e-05 2.7141e-19)
(2.55825e-05 -0.000103542 3.78655e-18)
(0.00092796 3.958e-05 -2.6921e-19)
(0.00138705 0.000144115 7.47863e-19)
(4.17871e-05 -1.19615e-05 8.26131e-20)
(4.24204e-05 6.0804e-06 -8.59409e-19)
(4.94644e-05 0.000151193 0)
(0.000895595 7.74186e-05 5.97796e-19)
(0.000488182 0.000369537 2.37247e-19)
(0.000736841 1.76888e-05 -3.8902e-20)
(0.000762084 -1.16004e-05 2.56797e-19)
(0.00072652 -0.000215411 0)
(0.00632133 0.0108963 -1.68035e-19)
(0.00637926 0.0109737 4.05761e-19)
(0.00616001 0.010731 -6.18402e-19)
(0.00650045 0.0111325 -8.10107e-20)
(3.84768e-05 0.000123624 8.00921e-19)
(0.000900842 5.79463e-05 1.52318e-22)
(0.00641058 0.0110062 -3.86424e-19)
(0.00628195 0.0108459 5.48408e-19)
(0.00607977 0.010673 -4.16824e-19)
(0.00652173 0.0111643 -6.81469e-20)
(8.52385e-05 0.000535834 -2.01939e-20)
(0.000135106 -0.000198506 -7.93021e-19)
(0.000731844 -1.46753e-05 -7.5997e-19)
(0.000715059 0.000220939 0)
(0.000795009 1.75734e-06 0)
(0.000184113 0.000393478 3.36443e-19)
(0.000595296 0.000536321 -5.41771e-19)
(1.59506e-05 -2.51054e-06 1.7849e-19)
(0.000206504 0.000464882 -7.38711e-19)
(0.00100082 0.000972664 -1.12765e-19)
(0.000731362 0.00016906 0)
(0.000778732 0.000175465 1.31092e-19)
(0.00636175 0.00587348 1.13066e-18)
(0.000732621 0.00113488 8.27319e-20)
(4.25976e-05 4.21728e-05 -7.45073e-20)
(0.000815538 3.25256e-05 0)
(0.000875184 2.47122e-05 -3.57121e-20)
(4.06367e-05 4.97522e-06 -1.9677e-19)
(3.49876e-05 6.42671e-06 1.93071e-19)
(0.000825906 2.31627e-05 5.36117e-19)
(0.000962419 0.000104427 6.58876e-19)
(0.000631929 3.65875e-05 0)
(0.000219606 -0.000314625 -3.97308e-19)
(0.000902151 0.000149399 3.89832e-19)
(2.82419e-05 -7.58564e-05 2.03225e-19)
(0.00143719 0.000398064 -2.58341e-18)
(0.00066327 -2.14095e-06 0)
(0.000781616 0.000144078 3.75681e-19)
(9.19867e-05 0.000404619 0)
(0.00118248 0.00816903 4.62069e-19)
(0.000474279 0.000504807 -1.22476e-18)
(0.000543842 0.000982661 -1.83831e-19)
(0.000869598 2.26595e-05 -1.45881e-19)
(1.65806e-05 2.89165e-05 0)
(0.000923515 7.49162e-05 6.12074e-19)
(0.00410838 0.00739747 8.14203e-20)
(0.00417259 0.00747526 4.73222e-20)
(0.00449916 0.00751406 4.54067e-19)
(0.00444463 0.0075407 -3.28538e-19)
(0.00647504 0.0111079 8.10908e-20)
(0.00391428 0.00714673 -9.50156e-22)
(0.00550886 0.00779467 -5.64696e-19)
(0.00409753 0.00737273 5.2125e-21)
(0.00518836 0.00785512 5.11616e-19)
(0.00408 0.00734226 -4.8663e-20)
(0.00495299 0.00771402 0)
(0.0040873 0.00736769 -8.55546e-20)
(0.0047417 0.00758616 4.92527e-19)
(0.00410005 0.00737749 8.7484e-20)
(0.00457419 0.00752553 0)
(0.00428265 0.00741899 1.39762e-19)
(0.00424019 0.00759933 5.80707e-19)
(0.00446717 0.00752585 -5.54493e-19)
(0.00438733 0.00750413 3.71339e-19)
(0.00422963 0.00752613 2.8031e-19)
(0.00643058 0.0110417 -4.96653e-21)
(0.00411964 0.00740295 3.11601e-20)
(0.00645742 0.011072 0)
(2.83424e-05 7.91066e-06 -1.89958e-19)
(0.00198989 0.00653979 2.28501e-19)
(0.000844372 -2.28071e-05 1.10026e-19)
(0.000857576 1.62398e-05 0)
(2.9387e-06 2.83765e-06 -3.99319e-19)
(4.21287e-05 -0.000183593 6.91941e-19)
(2.47943e-05 6.23092e-05 2.09003e-18)
(0.000814416 0.000180972 -9.01082e-20)
(0.000792757 1.1878e-05 7.06851e-19)
(3.24369e-06 -3.1516e-06 3.10156e-19)
(2.47572e-05 -4.06927e-05 -1.84653e-18)
(0.000753989 2.73673e-05 1.63257e-19)
(0.000855889 0.000128028 -3.07594e-20)
(0.000792284 -9.42044e-06 1.46811e-19)
(0.000401589 0.000668399 0)
(9.49406e-05 -0.00015288 1.15142e-18)
(0.000849513 1.54227e-05 1.52382e-19)
(2.23781e-05 2.71727e-05 0)
(0.000107317 0.000566842 -6.31472e-19)
(0.000604624 0.000602231 1.31848e-18)
(0.000334285 0.000734435 0)
(0.00079323 -1.76691e-05 0)
(0.000792598 1.0941e-05 1.16862e-18)
(2.14824e-05 5.32366e-05 -3.5167e-18)
(1.99786e-05 9.49827e-06 3.73816e-19)
(0.000114748 0.000153116 0)
(5.70713e-05 -4.36322e-05 0)
(6.69734e-05 0.000119251 2.011e-19)
(0.000919073 0.000176788 3.50631e-19)
(0.000798065 1.19174e-05 -1.38835e-18)
(2.54129e-05 3.74498e-05 0)
(0.000532528 3.27483e-05 -6.02983e-20)
(0.000798523 3.92712e-05 -1.5644e-19)
(0.000828508 2.33468e-05 1.04052e-18)
(0.000256965 0.000545595 6.32505e-19)
(0.000851684 0.000151781 0)
(2.67988e-05 -2.89968e-05 5.3896e-19)
(3.98286e-06 -1.11781e-05 -3.20138e-19)
(0.00104346 2.32026e-05 0)
(0.00103263 0.00223656 0)
(0.0010018 -2.60252e-05 0)
(0.000988885 0.000199094 4.27426e-19)
(0.000813138 -2.36688e-05 -2.8175e-19)
(0.000910384 0.000116706 -6.8517e-19)
(0.000793915 4.45193e-06 0)
(4.37544e-05 7.52754e-05 -1.71653e-19)
(0.000173393 0.000330568 1.08163e-18)
(0.000793738 2.79312e-05 7.61739e-24)
(0.0010728 0.00019926 -6.68985e-19)
(0.00108741 0.000119326 0)
(3.37254e-06 1.01393e-05 2.5116e-19)
(2.36059e-05 -1.91303e-05 -1.94416e-19)
(0.000629722 3.25477e-05 6.88904e-21)
(3.40471e-05 -0.000101164 0)
(0.00103742 0.00024861 9.50319e-19)
(0.00502791 0.00974828 -2.83264e-19)
(0.00311892 0.00962252 1.27238e-18)
(7.11833e-05 -0.000117373 -1.91408e-19)
(7.52312e-05 -8.08323e-05 1.86058e-18)
(0.00119101 0.000229655 1.67029e-19)
(0.0013363 0.00107259 2.34194e-19)
(0.00081974 2.54437e-06 -7.33296e-19)
(0.000212983 0.000948475 -2.38885e-19)
(0.000794872 0.000899784 -2.18678e-19)
(0.000795916 -5.51297e-06 0)
(9.35876e-05 0.000660386 0)
(9.73988e-05 0.000286635 -4.49605e-23)
(0.00073343 -2.98019e-05 -1.71521e-23)
(0.000812221 4.3782e-05 1.51079e-19)
(0.00262138 0.00206154 -1.23196e-18)
(0.00175679 0.00924367 -1.17178e-19)
(0.000828465 3.30746e-05 4.85742e-19)
(0.00633896 0.00403815 -1.75726e-19)
(0.00671982 0.0115564 -1.36745e-20)
(0.00473247 0.00784315 4.93926e-21)
(0.000799624 2.14639e-05 -2.17469e-18)
(0.000826265 2.64677e-05 -1.93247e-24)
(1.33996e-05 -1.05756e-05 -3.48205e-19)
(4.79311e-05 9.68906e-05 -3.49458e-19)
(7.54247e-05 0.000280351 8.75968e-19)
(1.41207e-05 1.91962e-05 4.90666e-19)
(9.02329e-05 0.000238424 3.69942e-19)
(0.000821096 3.3452e-05 0)
(0.00534783 0.00949313 1.94759e-20)
(0.00154514 0.000609582 -2.61476e-20)
(0.00082071 2.59722e-05 3.55869e-19)
(5.46704e-05 -9.18997e-05 0)
(0.00184242 0.000749296 5.46227e-19)
(1.24002e-05 9.97721e-06 -2.70297e-19)
(3.77026e-05 3.24472e-05 9.72337e-20)
(0.00131236 0.00137773 6.36625e-19)
(0.000742004 3.89455e-05 1.83222e-19)
(9.73296e-06 -2.81825e-06 -1.70296e-19)
(0.00206104 0.00154632 -1.05661e-18)
(0.000127273 0.000186265 -8.19131e-19)
(0.003921 0.00848374 -1.09119e-18)
(9.04953e-06 2.50128e-06 8.81892e-20)
(0.00018218 -0.00023747 -1.25009e-18)
(6.19696e-05 -6.03226e-05 4.05872e-20)
(0.00152768 0.000967221 0)
(0.00102682 0.000141658 -4.18438e-22)
(0.000451236 0.00085376 -4.02384e-20)
(0.000801207 2.23158e-05 -2.34184e-19)
(8.71478e-05 0.000192657 7.36386e-19)
(4.61779e-05 -6.94278e-05 4.0425e-19)
(2.10576e-05 1.79568e-05 -9.47605e-20)
(3.61871e-05 0.000101158 -3.20452e-19)
(0.000198958 -0.000333148 -5.40845e-19)
(0.00324507 0.00344258 2.81666e-21)
)
;

boundaryField
{
    back
    {
        type            empty;
    }
    ingreso
    {
        type            fixedValue;
        value           uniform (0.0008 0 0);
    }
    salida
    {
        type            zeroGradient;
    }
    front
    {
        type            empty;
    }
    defaultFaces
    {
        type            noSlip;
    }
}


// ************************************************************************* //
