/*--------------------------------*- C++ -*----------------------------------*\
  =========                 |
  \\      /  F ield         | OpenFOAM: The Open Source CFD Toolbox
   \\    /   O peration     | Website:  https://openfoam.org
    \\  /    A nd           | Version:  7
     \\/     M anipulation  |
\*---------------------------------------------------------------------------*/
FoamFile
{
    version     2.0;
    format      ascii;
    class       surfaceScalarField;
    location    "14.5";
    object      phi;
}
// * * * * * * * * * * * * * * * * * * * * * * * * * * * * * * * * * * * * * //

dimensions      [0 3 -1 0 0 0 0];

internalField   nonuniform List<scalar> 
1111
(
5.93287e-09
1.34616e-08
-1.52204e-08
-4.17409e-09
6.05844e-09
-1.13789e-08
1.12533e-08
-1.43249e-08
4.27559e-09
9.94412e-09
1.05238e-10
1.42666e-10
-1.58182e-10
-1.3892e-08
1.39075e-08
-1.38485e-08
1.3674e-08
3.17108e-10
-1.1621e-09
1.48223e-08
1.76839e-09
-3.82219e-09
9.24966e-09
-1.13893e-08
5.96186e-09
-6.39915e-09
-1.23855e-08
1.23643e-08
6.4203e-09
-5.11491e-08
-2.53902e-08
7.65393e-08
-8.06541e-09
7.4039e-09
6.71996e-09
3.784e-09
3.8599e-10
-3.86558e-09
-3.04411e-10
1.55594e-08
-1.58426e-08
-2.22547e-08
2.25379e-08
-9.68319e-09
-8.4891e-09
9.09579e-09
9.0765e-09
-3.42488e-08
1.70309e-08
-3.20037e-08
4.92216e-08
9.64557e-09
-1.82731e-09
-1.42174e-08
-4.00872e-09
3.81676e-09
-3.22545e-09
3.41741e-09
-3.71891e-09
1.29592e-08
2.01666e-09
-1.1257e-08
8.88424e-09
-2.06192e-09
-1.49886e-08
8.16632e-09
3.88912e-08
-3.23398e-08
-6.55144e-09
-1.90533e-08
-3.89048e-10
1.7894e-08
1.54837e-09
-1.97282e-10
3.73957e-09
-1.80999e-08
1.45576e-08
-6.37778e-08
-3.20289e-09
6.69807e-08
2.26914e-10
-1.41775e-09
-4.2851e-10
1.61935e-09
-9.41813e-10
-1.3104e-08
-2.77683e-10
-3.79735e-10
3.72202e-10
2.85216e-10
-9.98589e-09
-8.06602e-09
1.22336e-08
5.81833e-09
9.23512e-10
-2.253e-09
-8.49413e-09
9.82362e-09
7.60162e-09
1.14621e-09
-8.32603e-09
-4.21795e-10
-2.60086e-09
-7.77638e-09
1.05032e-08
-1.25975e-10
1.11016e-08
-4.72466e-11
-2.17015e-09
-1.14505e-09
1.10703e-09
1.58482e-10
-1.20461e-10
-4.69391e-10
1.01325e-09
6.49591e-10
-1.19345e-09
-7.27751e-10
-5.03703e-11
7.72743e-10
5.37867e-12
4.54307e-11
-1.19184e-09
8.21863e-11
1.06422e-09
-1.32223e-11
-1.0864e-09
5.52361e-10
-1.7905e-08
-1.70069e-09
-6.37312e-10
7.89096e-11
-1.69349e-10
1.31861e-08
-1.32359e-08
3.78945e-09
-5.0929e-10
7.19091e-10
5.00399e-10
-7.102e-10
-1.01525e-09
-2.70532e-09
2.09368e-09
1.62689e-09
-1.83713e-09
8.16044e-09
-1.01455e-08
-4.94789e-10
-2.4549e-10
1.02968e-10
-8.81967e-09
9.95436e-09
-9.2001e-09
1.15751e-08
-1.64834e-08
5.14893e-09
-2.40644e-10
1.28678e-10
-2.63466e-10
-3.60001e-10
3.37178e-10
1.0057e-09
-2.35848e-10
-6.01598e-08
7.46306e-08
-1.44707e-08
1.24685e-09
-4.52374e-10
-1.4584e-09
6.63923e-10
7.45496e-10
1.03123e-08
-1.35261e-08
2.46835e-09
-1.16111e-10
6.3721e-09
-7.62016e-09
1.36417e-09
-6.29997e-09
5.84828e-09
5.37535e-09
-4.92366e-09
-6.6965e-09
-2.53141e-09
2.33488e-09
6.89303e-09
4.06218e-10
-9.13168e-08
9.13219e-08
-4.11248e-10
-4.40886e-10
-9.00675e-08
9.05469e-08
-3.84596e-11
8.31385e-08
-1.52135e-09
7.81343e-11
-8.16953e-08
-3.35052e-09
1.27201e-10
9.25073e-10
9.95105e-10
-6.73332e-10
4.16671e-09
-1.97449e-09
3.24984e-09
-5.44207e-09
-1.23091e-09
1.11572e-09
-1.50403e-08
6.58596e-09
8.89763e-09
1.09265e-09
-9.61352e-09
-3.76757e-10
-6.0324e-09
1.2403e-08
1.54959e-09
-7.92017e-09
1.40315e-08
-3.7256e-09
3.11205e-09
-1.34179e-08
1.53172e-08
1.56794e-09
-1.45637e-09
7.17565e-11
-2.01987e-08
-7.87082e-09
2.79978e-08
1.33213e-08
-8.10953e-09
-2.27731e-09
7.48842e-09
-1.12435e-08
-1.92317e-10
3.84737e-10
-1.65082e-09
-3.75194e-08
-2.26404e-08
7.83078e-09
-2.29335e-10
3.97366e-09
-6.58631e-09
1.04581e-08
6.08257e-09
-7.73664e-10
4.54306e-10
6.27931e-10
-3.08574e-10
5.99235e-09
-4.52772e-09
3.49446e-09
-4.9591e-09
-7.66162e-10
-7.76204e-10
3.50527e-10
9.22219e-10
-8.90402e-10
-2.96851e-10
-1.333e-09
1.16046e-09
-1.69945e-08
2.31113e-09
1.456e-09
1.32273e-08
3.53897e-10
-9.08314e-10
-2.19246e-10
-3.36619e-09
-1.45984e-08
9.7018e-10
5.64259e-09
1.14922e-08
-5.24203e-09
-1.18927e-08
1.62713e-08
5.87445e-10
-1.57561e-08
-1.10262e-09
-8.61439e-10
6.21468e-10
6.94278e-10
-1.22307e-09
6.74011e-10
5.49055e-10
-6.89919e-09
-3.92191e-09
4.52113e-09
-5.20025e-10
7.32951e-10
-2.12926e-10
1.33098e-09
-1.46831e-08
-5.40881e-10
8.37021e-09
-9.66646e-09
-1.26475e-09
-1.51991e-09
1.23543e-08
4.39824e-09
-4.19162e-09
-1.25609e-08
3.96331e-10
6.85485e-09
-7.52102e-09
6.51445e-09
-2.10124e-09
-8.17602e-09
7.55989e-09
2.71738e-09
-1.78561e-09
5.89e-10
-1.34018e-08
-3.29031e-10
-1.90994e-10
-7.16418e-10
1.44672e-09
-7.4268e-09
8.51902e-10
1.70188e-08
-1.59939e-09
-1.58128e-08
1.6942e-08
-1.12919e-09
1.16471e-08
1.3814e-08
-1.54033e-08
-1.00577e-08
-1.02429e-09
1.67429e-09
-6.50002e-10
1.94158e-09
-2.57209e-09
6.3051e-10
3.58735e-09
-5.40987e-09
1.82253e-09
2.24876e-09
-1.9012e-09
-3.47555e-10
-1.28353e-08
1.33927e-10
1.27014e-08
3.03829e-09
-7.89533e-10
8.79712e-09
-1.48e-08
6.29e-09
-7.12253e-09
1.67121e-10
4.10583e-09
-4.88948e-10
-3.42428e-09
3.5914e-09
-8.36111e-09
9.78984e-09
-1.42873e-09
-1.06571e-09
4.01294e-09
1.21948e-09
1.67073e-08
-1.44975e-08
-1.46427e-09
-5.11523e-09
5.01417e-09
-1.87344e-09
-2.91337e-10
7.4376e-09
-7.33797e-09
-9.96289e-11
7.07638e-09
4.29132e-09
4.2167e-10
-1.54288e-08
1.01359e-08
1.694e-08
5.66953e-09
8.26171e-09
8.17602e-09
-6.63987e-09
4.63672e-10
-1.3299e-08
1.68348e-09
-4.26605e-10
-1.22579e-08
4.01579e-09
-4.24392e-10
1.49609e-08
-1.43734e-08
-3.39072e-11
-1.24407e-09
-1.33566e-08
6.94709e-09
1.01707e-09
-7.33024e-11
-8.95991e-09
5.54717e-09
-3.2268e-08
-1.24685e-08
-2.15966e-09
1.27156e-09
1.34854e-08
1.10053e-08
-1.07126e-08
-1.3778e-08
1.72911e-08
-3.11315e-09
-1.4178e-08
1.86782e-09
3.76008e-09
-1.57595e-09
-1.03931e-09
-1.12073e-09
1.45832e-09
7.01721e-10
-3.41801e-10
4.81572e-10
4.8816e-10
6.4402e-08
-6.41508e-08
-2.51113e-10
6.46e-08
-6.47676e-08
1.67574e-10
8.22206e-10
6.48045e-08
-6.55693e-08
7.64834e-10
6.39875e-08
8.16972e-10
-3.65653e-10
-6.63672e-08
7.97902e-10
-6.25253e-08
6.27872e-08
-2.61987e-10
1.4974e-09
-6.78646e-08
-6.23475e-08
-1.77779e-10
1.19438e-08
-1.32159e-09
1.98329e-09
-3.77844e-09
3.11673e-09
4.98162e-10
-1.37134e-09
1.2571e-09
-9.33052e-10
1.57026e-09
-1.86693e-09
1.22972e-09
1.64047e-09
-1.81277e-09
5.57036e-10
-1.27097e-10
-3.27995e-09
3.19747e-09
-2.49503e-09
2.57751e-09
-1.04736e-09
-2.97033e-09
2.6961e-09
-4.01958e-09
-5.4318e-09
7.01623e-10
-8.27248e-10
1.57181e-09
1.25555e-09
-6.61999e-09
7.98005e-09
2.93126e-09
2.16425e-08
-4.35144e-09
-8.76395e-10
3.07226e-10
1.27079e-09
-9.93357e-09
-2.75858e-08
5.51437e-09
-4.55746e-09
-3.05491e-09
2.09799e-09
1.44145e-10
-4.45963e-12
6.33058e-10
-2.94563e-09
3.60633e-09
8.50006e-09
9.93062e-10
-7.27535e-10
2.29363e-09
-2.61345e-09
2.46342e-09
1.43964e-08
1.29029e-08
-2.6404e-08
3.20299e-08
5.94329e-09
-2.20706e-08
-1.02767e-08
1.76972e-08
-1.73332e-08
1.06413e-08
-3.66514e-10
1.13233e-10
-1.55949e-09
-2.03743e-09
-1.55951e-09
3.18902e-09
1.43825e-08
-4.54591e-10
-1.33389e-08
3.40211e-10
-3.05781e-09
-2.52723e-10
1.49251e-08
1.71685e-08
1.33588e-08
7.83698e-10
-1.52494e-09
-1.26176e-08
-2.05124e-09
5.94548e-09
1.20514e-08
-9.65034e-10
-1.36543e-09
-3.49807e-09
2.73539e-09
3.96016e-09
2.38884e-09
1.38799e-08
4.17592e-09
-1.36576e-08
1.68551e-08
-1.50237e-09
2.97829e-09
-3.72802e-09
1.90595e-09
-4.44472e-09
1.25989e-08
-1.18731e-08
-1.35339e-08
5.27322e-10
8.56184e-09
-1.97567e-09
1.68436e-09
1.86312e-09
-8.96275e-09
5.19153e-10
-4.02491e-09
-5.89751e-09
1.19606e-08
-1.50258e-08
1.54769e-09
1.65105e-09
-2.09834e-09
1.60675e-08
-1.56202e-08
-9.57375e-10
1.38616e-08
2.42426e-09
-3.56118e-09
-1.36631e-08
7.23448e-09
-1.6633e-08
-7.93477e-09
6.33634e-09
5.81474e-09
1.40107e-08
-9.23908e-09
3.20522e-09
8.75125e-09
9.70152e-09
3.94805e-09
-4.05385e-09
2.11868e-08
-1.86009e-08
4.64859e-09
-9.70635e-09
2.33508e-09
4.99937e-09
1.33117e-08
-7.86288e-11
1.22136e-08
-1.30923e-08
-1.54857e-09
2.78397e-09
-2.02496e-09
7.89561e-10
1.05637e-08
-6.27465e-09
7.20317e-09
-1.00718e-08
1.45809e-09
-4.75392e-09
1.09917e-08
-1.14798e-08
-7.37384e-09
8.71959e-09
9.21791e-09
1.23344e-08
1.03055e-09
-1.34436e-08
1.81634e-09
8.97526e-10
-1.07036e-08
-6.75464e-09
1.00844e-08
-1.90146e-09
2.52316e-09
-8.43925e-09
4.60689e-09
-5.09514e-09
1.10684e-08
-3.50309e-09
-1.12084e-08
3.6431e-09
-4.54957e-09
1.0864e-08
2.23898e-09
1.26173e-09
-4.84604e-09
-1.73649e-08
1.03604e-08
1.18505e-08
9.40544e-10
-1.05273e-08
-9.71583e-09
1.53971e-08
1.18466e-08
2.68408e-09
-9.5313e-09
-1.31533e-08
-2.32327e-10
-1.23229e-08
3.50385e-10
-5.9819e-10
1.0751e-08
1.2458e-08
-8.04327e-09
1.58931e-08
-1.5163e-08
3.44577e-09
-5.38625e-10
1.58207e-09
1.21839e-08
-3.86989e-09
-1.22145e-08
-5.14321e-09
2.50224e-10
4.46638e-09
1.17556e-08
-7.57204e-09
8.88302e-10
-1.00684e-09
2.04848e-09
-2.59021e-09
5.9386e-09
2.58896e-08
-1.10004e-09
-1.39963e-08
1.50963e-08
2.73344e-08
-2.17849e-08
2.15836e-08
1.92311e-08
-1.23626e-08
-2.39636e-09
1.47556e-08
1.17144e-10
-1.18109e-08
-3.94814e-10
-5.98652e-09
-2.03571e-09
2.493e-09
1.78168e-09
3.44347e-10
-1.0502e-08
1.03687e-08
-2.1108e-10
1.74429e-09
-5.52333e-09
-1.03713e-08
1.00734e-08
-5.96168e-10
-1.00738e-08
-1.28875e-11
-1.01968e-08
-3.01737e-09
-1.15524e-08
2.34233e-09
7.70214e-09
5.07493e-09
4.16215e-10
-1.12958e-08
1.12239e-08
7.34765e-10
-8.28644e-09
5.28655e-09
-5.21613e-10
2.85887e-09
-3.61549e-09
-1.27504e-08
-1.34692e-08
1.27854e-08
-9.75753e-09
-1.55676e-08
9.8963e-09
9.01729e-09
7.99904e-10
2.45319e-09
-1.64495e-08
1.05642e-08
1.64491e-09
4.07114e-09
4.26697e-10
-6.76022e-10
-5.16836e-10
-4.00862e-09
2.79489e-09
-1.84409e-09
4.87189e-10
-5.68279e-10
8.10896e-11
-2.38253e-09
1.23229e-08
1.90625e-09
2.52801e-09
-1.41568e-09
-1.99549e-09
7.1287e-11
-2.68659e-09
-8.68394e-10
1.25112e-08
9.59496e-09
-5.99675e-10
7.1853e-09
-1.17049e-09
-5.41514e-09
-9.84642e-09
-4.8344e-09
3.83799e-10
1.03391e-10
4.23475e-09
1.45251e-09
-1.62145e-08
-7.30901e-10
-1.01034e-09
-1.85561e-09
6.89456e-10
2.44561e-09
6.36114e-08
-4.84203e-10
-6.31272e-08
6.23407e-08
2.30832e-10
-6.25715e-08
-1.4049e-08
1.97444e-10
1.43945e-08
-5.42963e-10
2.40313e-09
-2.16975e-09
2.90732e-09
1.78559e-09
-4.62215e-09
-6.9492e-10
-7.11557e-10
5.778e-10
-1.74816e-10
7.09222e-10
-5.28015e-10
1.8414e-08
1.14164e-09
-1.53209e-08
-3.93667e-10
-1.97511e-09
1.19616e-08
2.19735e-09
1.75681e-09
4.7202e-09
-1.67605e-09
-7.97623e-08
-2.39251e-08
-4.84164e-09
1.54294e-08
2.37146e-09
-1.03901e-09
-3.49167e-09
-1.49339e-09
8.55564e-10
-7.27603e-10
-1.37471e-08
-3.31217e-10
1.40783e-08
-1.04885e-08
-6.69178e-09
1.04257e-08
-9.09317e-09
8.91563e-09
-3.19113e-10
2.06407e-09
1.3223e-08
-1.28988e-08
-3.24173e-10
8.26856e-10
3.91094e-11
9.24367e-09
1.11213e-09
-1.34065e-09
-4.71858e-10
-1.40733e-08
-5.2408e-10
-1.30977e-08
1.17682e-08
-1.11451e-08
-6.60388e-08
6.49187e-08
1.12007e-09
6.3302e-10
-6.3748e-10
1.14254e-08
-5.98477e-10
3.01983e-11
-1.69972e-09
2.74501e-09
-3.41953e-09
-1.34481e-08
-1.5548e-09
2.48611e-09
-4.43173e-09
-1.36693e-08
1.88648e-09
5.611e-09
9.27051e-09
-8.70258e-09
-6.23976e-10
2.55001e-11
-9.39524e-09
-1.21076e-08
-6.79868e-12
-6.17845e-08
1.86427e-10
6.15981e-08
9.80781e-10
6.30067e-08
-5.39386e-10
-6.54124e-10
-1.41796e-08
-1.7632e-10
-6.35307e-08
6.3707e-08
4.11936e-10
-6.33947e-08
6.29827e-08
6.42102e-10
6.30047e-08
-4.22179e-10
-6.25825e-08
6.33195e-08
-3.1476e-10
-8.79182e-08
8.86168e-08
1.18357e-10
8.8257e-08
-8.83797e-08
-1.28451e-10
-8.68611e-08
-2.92277e-10
8.78883e-08
3.07436e-12
-8.5275e-08
-7.88226e-10
8.78089e-08
2.47036e-10
-6.39027e-10
1.80593e-09
8.68251e-08
-6.9386e-08
6.21066e-08
-6.17004e-08
-6.22254e-08
6.35339e-08
-2.14424e-10
-3.06687e-09
2.70313e-09
-1.32939e-08
1.08132e-10
2.75667e-10
2.66961e-09
1.04943e-08
-1.25562e-08
3.84386e-08
-3.46401e-08
-1.60564e-08
1.42665e-08
-1.03947e-10
-2.11723e-10
3.81044e-10
1.03531e-09
-2.12677e-10
4.48677e-10
4.71171e-09
1.0897e-09
-3.89547e-09
-5.53191e-10
6.32101e-10
-4.50223e-10
-2.4434e-09
1.2577e-08
2.18922e-09
-1.43902e-08
-2.13333e-09
-3.92185e-09
5.69204e-09
1.11767e-09
-2.34232e-09
1.38636e-08
-1.16084e-09
-5.30951e-09
9.0165e-09
-7.7163e-09
-1.87058e-08
-1.27199e-08
7.70167e-09
5.54552e-09
-3.19927e-10
-5.19455e-10
3.33239e-09
1.42637e-08
1.52604e-09
-9.67506e-10
-5.09435e-10
5.41033e-10
-3.22935e-10
1.5767e-08
-4.44875e-10
-1.56534e-08
-6.28707e-09
-3.13153e-09
2.95171e-10
-2.84284e-10
4.66871e-09
-1.90427e-08
7.06711e-10
-1.77586e-09
-2.40966e-09
-2.0576e-09
1.51124e-08
-9.10072e-08
1.02298e-10
9.10768e-08
4.75905e-10
-8.94626e-08
-7.81291e-10
8.88993e-08
-6.27008e-11
-8.93208e-08
-6.98736e-10
-1.86665e-09
1.59115e-08
9.06478e-08
-2.7388e-10
1.35022e-10
-1.98406e-11
1.18065e-08
1.94556e-09
-1.06794e-08
-1.17066e-08
-5.42897e-09
8.43319e-09
1.40847e-09
-6.9104e-09
-6.62144e-09
9.13378e-09
-3.21545e-10
1.01282e-08
1.88271e-08
-1.75012e-08
3.00003e-09
-1.22652e-08
3.05074e-09
-6.99858e-08
3.94704e-09
-2.01896e-08
-1.23417e-08
-6.50921e-10
-5.71435e-09
-1.53195e-08
9.22293e-09
-1.50358e-08
6.32962e-10
5.39236e-10
-1.43117e-09
-1.59161e-08
1.64645e-08
1.05742e-08
-1.0447e-08
-5.55976e-09
1.45582e-08
-1.49127e-09
7.96692e-10
-1.62418e-09
7.12859e-10
1.18044e-08
3.54223e-09
7.10883e-08
-1.777e-08
9.65443e-10
-1.43998e-08
-3.40265e-10
-3.82095e-10
-2.88889e-10
6.34893e-08
-6.3552e-08
-6.33957e-08
-6.36686e-08
3.39995e-10
1.80919e-11
-8.96789e-08
-6.35911e-08
6.5397e-08
6.49969e-08
-6.33441e-08
6.43578e-08
-6.3341e-08
6.35696e-08
-6.34694e-08
6.32773e-08
9.01553e-08
4.2995e-10
-6.55344e-09
7.49259e-08
-6.48302e-08
1.60954e-10
-1.60954e-10
2.53461e-09
-3.91431e-10
1.54419e-08
-1.88738e-10
1.88738e-10
5.55069e-10
1.16184e-09
1.4267e-08
1.25959e-08
-2.41e-09
3.44848e-09
6.50599e-09
1.88996e-09
5.01619e-10
-3.60312e-10
-2.86207e-09
1.42632e-08
1.47869e-08
-4.38798e-09
1.13277e-08
3.03148e-10
2.34935e-10
3.04781e-09
-1.08835e-09
-1.84667e-09
-5.75276e-09
-1.77288e-10
-5.31517e-10
1.51335e-08
4.19279e-10
2.07592e-10
1.74943e-08
-2.48594e-08
1.69857e-08
2.52749e-09
1.544e-09
2.01537e-09
-3.45972e-09
1.8837e-08
-1.73926e-08
-1.68075e-10
1.1e-09
-1.46807e-09
-7.91072e-08
-7.0854e-08
1.49188e-09
-1.30737e-09
7.56278e-10
2.25662e-08
1.78444e-08
-6.38954e-09
2.40416e-10
-4.53789e-09
-1.71079e-09
3.00793e-08
2.34292e-10
1.43653e-08
6.9257e-08
1.32808e-10
5.94863e-10
-2.49786e-10
-3.23302e-10
-3.93713e-09
2.31646e-08
-1.46671e-08
1.28452e-09
-1.31937e-08
-1.14714e-10
2.02447e-08
-2.78154e-08
9.09157e-10
2.72943e-09
-8.03927e-10
)
;

boundaryField
{
    back
    {
        type            empty;
        value           nonuniform 0();
    }
    ingreso
    {
        type            calculated;
        value           nonuniform List<scalar> 
14
(
-1.54286e-08
-1.54288e-08
-1.54288e-08
-1.54288e-08
-1.54286e-08
-1.54283e-08
-1.54288e-08
-1.54288e-08
-1.54286e-08
-1.54286e-08
-1.54288e-08
-1.5428e-08
-1.5428e-08
-1.54286e-08
)
;
    }
    salida
    {
        type            calculated;
        value           nonuniform List<scalar> 2(1.03687e-07 1.12313e-07);
    }
    front
    {
        type            empty;
        value           nonuniform 0();
    }
    defaultFaces
    {
        type            calculated;
        value           uniform 0;
    }
}


// ************************************************************************* //
