/*--------------------------------*- C++ -*----------------------------------*\
  =========                 |
  \\      /  F ield         | OpenFOAM: The Open Source CFD Toolbox
   \\    /   O peration     | Website:  https://openfoam.org
    \\  /    A nd           | Version:  7
     \\/     M anipulation  |
\*---------------------------------------------------------------------------*/
FoamFile
{
    version     2.0;
    format      ascii;
    class       volVectorField;
    location    "14.5";
    object      U;
}
// * * * * * * * * * * * * * * * * * * * * * * * * * * * * * * * * * * * * * //

dimensions      [0 1 -1 0 0 0 0];

internalField   nonuniform List<vector> 
591
(
(0.00080925 -5.10515e-05 1.22082e-18)
(0.000756834 -4.23169e-05 -6.60833e-19)
(0.000836432 -6.40491e-05 5.72462e-20)
(0.000824227 1.39891e-05 -1.47919e-19)
(0.00081384 2.08744e-05 2.22611e-19)
(0.000711157 -2.04433e-05 -1.38597e-19)
(0.000517057 -0.000392333 7.94707e-19)
(0.000800785 -1.09488e-05 2.08286e-18)
(0.00576092 0.00249036 9.86661e-19)
(0.000776671 -2.60661e-05 2.3767e-18)
(6.70611e-05 0.000180288 1.21778e-18)
(0.00088577 0.00124807 9.41398e-21)
(0.00077779 1.44778e-05 1.28988e-18)
(0.00154157 0.00233184 -7.86452e-19)
(0.000795994 4.91676e-05 -4.38895e-19)
(0.000161434 -0.000259658 2.81041e-22)
(0.000128676 0.000657868 7.05631e-19)
(0.000845346 1.9288e-05 -4.93022e-19)
(0.00201446 0.0003983 4.72724e-19)
(0.00132931 0.000312906 -2.47622e-19)
(0.00081698 2.75285e-05 3.69323e-19)
(0.00355821 0.00716318 -2.13507e-20)
(4.11151e-05 7.87904e-05 2.70938e-19)
(0.000811712 1.01556e-05 -4.44266e-19)
(2.03662e-05 -2.57051e-05 3.59258e-19)
(0.000773379 2.09217e-05 0)
(8.88896e-05 0.000477923 1.60085e-19)
(0.000506774 3.47637e-05 -1.79068e-19)
(0.000732778 6.65043e-05 1.13814e-18)
(0.000818965 -2.82768e-05 5.89752e-19)
(7.02659e-05 6.08082e-07 -4.5595e-25)
(5.08514e-05 -5.64004e-05 3.52592e-19)
(4.90187e-05 -4.87524e-06 -4.64443e-20)
(5.83153e-05 -8.2395e-06 0)
(6.46617e-05 -1.61878e-05 1.13057e-18)
(0.00115695 0.000140352 1.80316e-19)
(4.28529e-05 -8.1113e-06 4.47674e-20)
(0.000810339 1.27504e-05 4.91193e-23)
(3.86999e-05 5.45829e-05 2.66198e-19)
(7.84207e-05 -0.000157465 -8.55099e-19)
(0.000517908 -0.000160217 9.57117e-19)
(3.58866e-05 -1.06569e-05 4.55358e-20)
(0.000794552 -9.56516e-06 -1.54425e-18)
(0.000815463 1.07665e-06 -6.72669e-19)
(2.64092e-05 -1.27821e-05 0)
(6.57282e-05 1.24017e-05 8.5285e-20)
(0.00133811 0.00453354 8.92776e-19)
(8.8381e-05 2.53717e-05 8.64603e-20)
(0.000784937 5.55402e-05 0)
(0.00035911 -0.000119489 6.78868e-19)
(0.000365718 0.000281697 5.12438e-21)
(0.000381424 8.40941e-05 -1.005e-18)
(0.00648791 0.010896 -7.69553e-19)
(0.00628712 0.0108516 1.62166e-20)
(0.00561712 0.0103758 1.45681e-18)
(0.000803906 -5.32885e-05 0)
(7.68121e-05 4.02485e-05 0)
(0.000334244 3.40003e-05 9.61003e-24)
(7.47024e-05 1.70752e-05 -3.46853e-19)
(0.000868545 -9.95387e-06 0)
(0.000597837 2.64605e-05 3.17982e-19)
(0.000785874 1.68312e-05 2.16582e-18)
(0.000754662 -5.67634e-06 -5.41022e-19)
(0.000724792 1.58354e-05 -3.12956e-19)
(0.00170769 0.000541965 5.44819e-19)
(0.000790091 -6.21671e-06 -1.13211e-18)
(0.000793198 6.93872e-06 -5.13189e-19)
(9.7767e-05 6.15854e-06 -1.73565e-19)
(0.000731646 0.00230419 0)
(0.000809001 5.17343e-06 0)
(0.000721312 1.83985e-05 -1.36507e-18)
(4.60053e-05 2.10982e-05 0)
(0.000277999 0.000277602 3.27173e-19)
(5.43838e-05 -2.22886e-05 0)
(5.31609e-05 -7.70421e-06 1.59655e-19)
(3.85392e-05 -6.05418e-05 -3.37e-20)
(0.000752139 4.87552e-05 2.4246e-19)
(5.30498e-05 1.52074e-05 0)
(0.000772319 6.83954e-05 4.40042e-19)
(0.000738145 0.000302397 2.10983e-19)
(0.000955317 6.09559e-05 -3.98552e-20)
(5.12165e-05 2.9677e-05 -4.52379e-20)
(7.01598e-06 -4.96295e-05 0)
(0.000414383 0.00022665 1.70365e-19)
(1.38433e-06 3.89508e-05 0)
(0.000731026 -1.42228e-05 -5.98875e-19)
(0.00053959 -0.000102776 0)
(7.7983e-05 3.81318e-06 -1.74675e-19)
(5.06215e-06 -6.56096e-05 0)
(0.000798798 0.000242228 -3.41706e-19)
(4.98277e-06 -3.11275e-05 0)
(0.000409602 0.000323186 -1.19202e-23)
(0.000500835 0.000118515 0)
(0.000790474 3.81132e-05 4.82406e-24)
(2.88393e-06 2.66296e-05 -4.2219e-20)
(0.000425384 1.73553e-05 1.76576e-18)
(0.00100887 7.71568e-05 4.16758e-20)
(0.00101367 2.76713e-05 6.41633e-22)
(0.000718296 0.00064358 2.68536e-19)
(2.64543e-06 7.26615e-05 0)
(8.74013e-06 -0.000130851 -3.12586e-19)
(2.18963e-05 -0.00022427 -1.10191e-18)
(-6.03766e-07 0.000111747 -5.96294e-19)
(0.000752369 -3.42017e-06 0)
(1.53865e-06 0.000140581 0)
(0.000780956 -6.19101e-06 2.16714e-18)
(0.000737185 4.08191e-05 1.49427e-18)
(0.000392684 -2.65678e-05 0)
(5.92723e-05 0.000236253 -8.94617e-19)
(-9.22643e-07 0.000221902 4.96135e-19)
(9.37408e-05 0.000494111 6.2579e-19)
(0.000285084 0.000128748 -9.34645e-19)
(0.000820077 5.42371e-07 1.34825e-19)
(0.000269509 3.4724e-06 5.31663e-19)
(1.65295e-06 5.19984e-05 0)
(5.42677e-05 0.000326962 -1.08933e-18)
(0.000309748 0.000329894 -1.61863e-19)
(8.8465e-06 -9.61321e-05 1.46719e-19)
(0.000634865 0.000767228 0)
(0.000352533 0.000390031 5.74987e-20)
(0.000801785 -9.28074e-07 1.0328e-18)
(0.000719136 -4.80441e-05 -2.69063e-18)
(7.89734e-06 -0.000174074 0)
(0.000776976 -1.14979e-05 -1.11422e-19)
(0.000315625 -4.40441e-05 1.24482e-18)
(0.00272327 0.000817683 -3.35086e-19)
(-6.18073e-06 0.000172834 -6.1308e-19)
(-2.06553e-05 0.000216174 1.61932e-18)
(0.000883327 1.8537e-05 -3.8916e-20)
(7.61541e-05 -4.16086e-06 -7.50153e-19)
(0.000772211 4.16337e-05 -3.89134e-19)
(0.000936876 2.83182e-05 -4.10449e-20)
(7.51567e-05 0.000396982 -5.96999e-19)
(0.000461839 8.59559e-05 -4.9449e-19)
(6.09936e-05 -1.58023e-06 1.5633e-19)
(0.000823543 -2.27203e-05 -1.05883e-18)
(0.0016709 0.000219415 -1.13675e-18)
(-1.28221e-06 8.61107e-05 4.96434e-19)
(0.000782018 -2.10418e-06 -5.04129e-19)
(0.000870282 0.000536409 -7.85966e-20)
(0.000136531 0.000885777 0)
(0.000544781 6.97691e-05 0)
(0.000264274 6.54845e-05 -1.60775e-18)
(7.04943e-05 6.81029e-05 -1.37564e-18)
(3.7234e-05 2.59278e-05 0)
(0.0041593 0.00778097 -1.01131e-20)
(0.00418222 0.00777985 4.50899e-20)
(0.0043932 0.00795707 -2.17097e-20)
(0.00417319 0.00767595 0)
(0.00410121 0.00757171 5.81199e-19)
(0.00418121 0.00779632 -1.00762e-19)
(0.00420588 0.00802131 4.88854e-19)
(0.00408446 0.00762949 0)
(0.00415622 0.00852893 6.18662e-19)
(0.00410797 0.0076071 2.32258e-19)
(0.000799784 -8.5531e-06 -1.34168e-18)
(0.000733054 6.47608e-05 0)
(0.00022001 7.75676e-05 1.27839e-19)
(5.94714e-05 2.19412e-05 8.72841e-20)
(8.68834e-05 5.48006e-05 6.80787e-19)
(0.000116508 5.26441e-05 -3.42051e-19)
(0.000111935 1.73539e-05 0)
(5.82675e-05 8.7652e-06 8.19214e-20)
(0.000203838 0.000149517 0)
(0.000174865 6.38567e-05 -5.24875e-20)
(0.000331268 0.000233037 -5.09772e-21)
(6.31147e-05 5.19058e-05 -4.38152e-19)
(0.000101092 3.81363e-05 -8.53438e-20)
(9.8684e-05 7.27757e-05 1.3134e-21)
(0.00024504 0.000371492 -6.66833e-19)
(0.000161376 0.00110282 0)
(4.88831e-05 6.02839e-05 3.4345e-19)
(0.000175517 0.00185211 0)
(0.000205307 0.000261877 7.05378e-19)
(4.68877e-05 -7.28973e-06 1.11436e-19)
(0.000458986 0.000172193 -1.72483e-19)
(0.000760855 2.77802e-05 -1.8534e-18)
(5.24074e-05 7.79886e-07 4.23497e-24)
(0.000158955 4.26687e-05 2.24755e-19)
(0.000237302 0.000114407 -9.00336e-20)
(0.000860557 0.000692778 3.35262e-19)
(0.00073252 0.00163752 -9.24044e-21)
(0.00042273 0.00134617 -9.44911e-21)
(0.0010005 0.00055847 0)
(0.000116844 -9.84556e-06 1.12004e-18)
(0.000130285 3.07312e-05 -4.43677e-20)
(0.000408273 -0.000217906 -1.13811e-18)
(0.000796406 4.03613e-05 0)
(0.000184543 3.97386e-05 3.62983e-19)
(0.00024627 0.00139244 0)
(0.00102042 0.00073098 -7.30905e-20)
(0.000807595 4.77439e-05 -1.82654e-19)
(9.56688e-05 -1.76359e-05 -3.00276e-19)
(0.000796713 0.000300814 -2.08296e-20)
(8.33762e-05 -2.33694e-05 -5.98959e-19)
(0.000226155 0.000186199 8.64779e-20)
(0.000224278 0.000313075 -3.45364e-19)
(0.000858939 0.000234748 0)
(0.000776237 3.52303e-05 0)
(0.000258539 0.000155552 1.77036e-19)
(0.000235479 2.54193e-05 1.95735e-24)
(0.000184986 0.000215854 0)
(0.000281883 0.000636213 -5.55713e-21)
(0.000325144 2.34944e-05 0)
(0.000325359 0.000586572 0)
(0.000117472 9.5486e-05 -1.3482e-21)
(0.000800852 -1.82506e-05 -9.42371e-19)
(0.000827698 -2.54558e-05 7.72608e-19)
(0.000136709 7.30961e-05 -1.50022e-19)
(0.000930207 0.000150001 8.49909e-20)
(0.000816331 4.98033e-05 3.27549e-19)
(0.000783943 2.11066e-05 -2.93794e-19)
(0.000976702 0.000403149 0)
(0.000420634 0.00012892 6.25158e-19)
(0.000868743 0.000315289 2.09388e-20)
(0.000544207 0.000168623 0)
(0.000275554 0.00043536 4.10035e-19)
(0.000255362 0.000229674 -8.45055e-20)
(0.0010841 0.000384604 -7.83048e-19)
(0.000584251 0.000120571 -1.79511e-19)
(0.000780464 0.00010131 -7.3687e-21)
(0.000810082 2.83768e-05 9.34584e-20)
(0.000116046 -9.49538e-05 -1.98355e-18)
(0.000716424 0.000374221 2.19478e-19)
(0.000627575 7.38402e-05 2.30754e-20)
(0.000679719 0.000271357 1.46721e-23)
(0.000701012 0.0004407 -4.09864e-19)
(0.000825055 3.61732e-05 8.87732e-20)
(7.85639e-05 9.26122e-05 0)
(0.000628924 0.00042259 -4.66228e-20)
(0.000185063 0.000114577 0)
(0.000362482 0.000510526 -2.65007e-19)
(0.000308938 0.000183045 0)
(0.000649555 0.000207289 3.5567e-19)
(0.000622019 0.00027318 -4.37774e-20)
(8.33098e-05 0.00011078 6.19449e-19)
(0.000873087 0.000119969 -1.59401e-18)
(6.7249e-05 2.91334e-05 2.57485e-19)
(0.000881854 6.63086e-05 -1.64612e-18)
(0.000775893 3.65645e-05 1.59563e-19)
(0.00078213 -1.24101e-06 1.92411e-18)
(0.00078544 -2.78445e-06 -1.31082e-19)
(0.000681812 7.42226e-05 0)
(0.000847508 2.70921e-05 8.79886e-19)
(0.000917439 0.000242411 -4.27635e-19)
(0.000739726 7.40215e-05 -4.78465e-19)
(0.000752714 0.000231753 -8.82223e-20)
(0.000249068 -9.42368e-05 -2.0815e-18)
(0.000708358 9.54324e-05 8.88498e-19)
(0.000610996 0.000585239 0)
(0.000137127 -9.09993e-05 0)
(0.0011672 0.000462279 4.96722e-19)
(0.00082284 -0.000165942 -3.23404e-18)
(0.00126085 0.000413632 5.73732e-19)
(0.00126376 0.000717126 -6.3851e-20)
(0.000783434 5.90294e-05 -2.08897e-19)
(0.000802685 8.45689e-05 -1.40298e-18)
(0.000783678 5.8027e-05 1.5558e-18)
(0.000775341 -1.57683e-05 9.58033e-20)
(0.000655167 0.000341636 -4.40916e-20)
(0.000110598 0.000147567 2.20607e-23)
(0.000696277 -6.87938e-05 2.65442e-19)
(0.000261281 -0.000172765 -7.3731e-19)
(0.000595375 0.000193805 0)
(0.000665288 2.08587e-05 9.91397e-20)
(0.000646217 7.27466e-06 -3.813e-19)
(0.000373572 0.000183968 3.9315e-20)
(0.000762247 0.000496344 -1.65662e-19)
(0.000157572 9.2911e-05 2.06672e-25)
(0.000790938 0.000385489 0)
(0.000946983 0.000321151 4.16279e-20)
(0.000713607 -0.00011116 -6.17076e-19)
(0.000334066 0.000114354 4.97299e-19)
(0.000875762 0.000415524 0)
(5.76404e-05 3.86584e-05 1.33863e-19)
(0.000461648 0.000273514 2.14176e-19)
(0.000434477 -7.70813e-05 -7.10027e-19)
(0.000193787 -0.000126296 -1.06021e-18)
(0.000772886 -1.39184e-05 -4.73538e-19)
(0.000798687 -0.000110893 -1.92638e-19)
(0.000556587 0.000726974 -1.16714e-18)
(0.000821404 5.92849e-05 -6.63569e-20)
(0.000780017 -7.3752e-05 1.25882e-18)
(0.000653882 9.92273e-05 2.28073e-20)
(0.000504348 0.000221467 -1.65858e-19)
(4.52165e-05 -2.66047e-05 -8.76816e-20)
(0.000207503 -2.05416e-05 2.40214e-18)
(3.54196e-05 9.36777e-07 -1.95009e-19)
(0.000764338 7.39291e-05 3.57967e-19)
(0.000625329 0.000143545 0)
(0.000208917 -4.32636e-05 -1.04886e-18)
(0.000133644 9.48951e-06 3.12727e-19)
(0.000141722 -3.18337e-05 -7.44125e-24)
(0.000776575 0.000118366 -3.1882e-19)
(0.000160826 -3.33729e-06 0)
(0.000561511 0.000244986 0)
(0.00011156 0.000341258 -3.63217e-19)
(0.00083042 0.000128205 2.06437e-18)
(2.88874e-05 1.79473e-06 0)
(0.000816251 6.2355e-06 0)
(5.70492e-05 -2.69733e-05 0)
(0.000821948 2.18557e-05 -4.38145e-21)
(0.000815971 -6.70532e-05 0)
(0.00410838 0.0077097 8.39968e-20)
(0.00420781 0.00755607 1.48041e-19)
(0.000834726 1.03276e-05 0)
(0.00074004 -6.36842e-05 8.13904e-19)
(0.000154579 0.000139905 1.49369e-19)
(0.00087012 7.15599e-05 7.88985e-19)
(0.000136043 0.000117059 2.34655e-20)
(0.000736993 -6.37296e-05 6.27631e-19)
(4.25633e-05 1.34193e-05 0)
(3.98145e-05 -1.86322e-05 -4.48997e-20)
(0.000857639 6.83864e-05 -4.78495e-19)
(5.06556e-05 -3.72176e-05 -6.70359e-19)
(0.000730885 0.000128406 -4.23746e-20)
(0.000167635 0.000175564 -1.88299e-19)
(0.000797208 1.03859e-05 0)
(0.0046549 0.00834835 1.37858e-21)
(0.000161979 0.000774229 3.3404e-19)
(0.000140212 -4.52939e-05 -9.14343e-19)
(7.87296e-05 -3.56652e-05 -1.16975e-18)
(0.00081483 2.10128e-05 1.89618e-20)
(0.000557796 0.000416874 0)
(0.000389623 0.000427368 -2.56229e-19)
(0.000120594 -4.69844e-05 1.18486e-18)
(0.000773244 5.0051e-06 7.71393e-20)
(5.10498e-05 2.28408e-06 4.07478e-19)
(0.000627237 -5.57398e-05 1.17319e-18)
(0.000788373 1.38104e-05 -6.00715e-19)
(9.68252e-05 -5.3927e-05 1.71081e-18)
(0.000825832 7.69494e-06 -2.12018e-25)
(0.000789834 1.46443e-05 -3.77085e-20)
(0.000837977 6.8432e-05 0)
(0.000775998 4.4007e-05 0)
(0.00592484 0.00722279 2.59041e-19)
(3.6953e-05 3.81883e-06 -1.19673e-19)
(0.000193535 -6.89483e-05 7.72424e-19)
(0.000701806 0.000117871 -6.97401e-19)
(4.17614e-05 -1.09308e-06 2.01627e-19)
(0.000557929 -1.63275e-05 -7.24741e-19)
(0.000695319 -1.68494e-06 1.54165e-18)
(0.000676321 0.000153875 -3.55875e-19)
(0.000792716 -4.40073e-05 3.55775e-19)
(0.000103926 -2.71997e-05 1.11728e-18)
(0.000722727 1.23146e-05 -3.19693e-19)
(0.000839985 6.27114e-05 0)
(0.000520339 0.000303609 4.21486e-20)
(0.000851116 2.92595e-05 -9.20366e-19)
(3.61724e-05 -3.11017e-06 9.11669e-19)
(0.000798273 1.5624e-05 9.41181e-19)
(0.000806034 -4.42642e-05 -9.64398e-19)
(0.000683003 2.24813e-05 -5.6816e-19)
(0.000475908 -4.07769e-05 -5.26326e-19)
(0.00413283 0.00755775 2.57646e-19)
(0.00411575 0.00743259 -2.61329e-19)
(0.00408001 0.00756751 2.8885e-19)
(0.00413351 0.00775252 2.8104e-19)
(0.000836613 2.50843e-06 1.42974e-19)
(0.00446866 0.00761336 0)
(0.00438365 0.00759605 -4.55193e-19)
(5.42988e-05 -5.15295e-07 -9.97357e-19)
(0.00417207 0.00759533 -6.47369e-20)
(0.00415634 0.0076354 -2.84716e-19)
(0.00603241 0.0106001 0)
(0.00640545 0.01052 4.7627e-20)
(0.0060079 0.0105432 0)
(0.00640236 0.0104975 1.8413e-19)
(0.0059973 0.0105344 2.05064e-19)
(0.00639569 0.0104849 2.20771e-20)
(0.00592664 0.0105852 -7.8094e-19)
(0.00642649 0.0104148 1.96092e-20)
(0.00389725 0.00919704 -1.90755e-19)
(0.00413826 0.00744698 3.41679e-21)
(0.00410907 0.00749456 9.06005e-20)
(0.00415626 0.00768811 5.35086e-20)
(0.000845554 0.000175922 4.4504e-20)
(2.12747e-05 2.61711e-06 0)
(0.0006358 -0.000153908 0)
(0.000774256 2.96492e-05 0)
(0.00244327 0.00105208 4.35024e-21)
(0.00068407 -1.55965e-05 1.71316e-19)
(4.94722e-05 8.84923e-06 4.54543e-20)
(2.45001e-05 -3.34176e-05 1.65417e-18)
(0.000836057 3.02815e-05 0)
(3.43473e-05 1.7048e-05 -1.91946e-19)
(0.000147202 0.000233373 0)
(3.82601e-05 -1.28963e-06 0)
(3.17873e-05 -2.12413e-06 0)
(0.000794687 0.000134896 1.13442e-20)
(0.000832377 1.50081e-05 1.76001e-19)
(3.54499e-05 0.000336654 5.48702e-23)
(0.000162279 0.000278856 -1.84382e-18)
(0.000587137 0.000343088 -8.57925e-20)
(0.000876454 0.000121754 6.01486e-19)
(0.000727143 -0.000490683 6.63653e-19)
(0.000313777 0.00110126 0)
(0.000461342 0.000537726 2.71213e-18)
(0.000101275 0.000152703 -1.79917e-18)
(4.44992e-05 5.38965e-07 0)
(0.000847263 -1.08928e-05 3.57719e-20)
(2.22009e-05 4.6091e-05 1.64639e-18)
(0.000888386 2.62384e-05 2.7132e-19)
(9.79997e-05 -0.000282606 3.7796e-18)
(0.000916507 4.39488e-05 -2.69457e-19)
(0.00146723 9.60554e-05 7.477e-19)
(4.8179e-05 -1.33698e-05 8.26672e-20)
(4.62562e-05 9.87275e-06 -8.5927e-19)
(4.5696e-05 0.000164337 0)
(0.00087367 0.000103053 5.97374e-19)
(0.000477452 0.000372838 2.37378e-19)
(0.00084084 1.66081e-05 -3.87879e-20)
(0.000731705 -1.90523e-05 2.55291e-19)
(0.000673849 -0.000236656 0)
(0.00645406 0.0109112 -1.66259e-19)
(0.00651425 0.010874 4.10668e-19)
(0.00618215 0.010757 -6.1358e-19)
(0.00643625 0.0105883 -8.90166e-20)
(4.44125e-05 0.000121469 8.00283e-19)
(0.000877254 5.39998e-05 1.55913e-22)
(0.00651324 0.0108281 -3.93086e-19)
(0.00639079 0.0109036 5.42476e-19)
(0.00609742 0.0106746 -4.47615e-19)
(0.00642792 0.0105498 -7.72566e-20)
(0.000102603 0.000596349 -2.02192e-20)
(0.000190202 -0.000170161 -7.95496e-19)
(0.000825774 -2.56949e-06 -7.57331e-19)
(0.000701938 0.000217128 0)
(0.000733128 -7.60658e-06 0)
(0.00018511 0.000392513 3.36635e-19)
(0.000603859 0.000575062 -5.42108e-19)
(2.38093e-05 -3.20849e-06 1.78608e-19)
(0.000211653 0.000463064 -7.39131e-19)
(0.000996674 0.000963332 -1.1281e-19)
(0.000718429 0.000173937 0)
(0.000764231 0.000164394 1.3086e-19)
(0.00636483 0.00586912 1.12946e-18)
(0.000682675 0.00112911 8.28759e-20)
(4.62713e-05 4.57345e-05 -7.45559e-20)
(0.000821559 4.85755e-05 0)
(0.000865737 1.46605e-05 -3.57015e-20)
(4.54773e-05 6.97168e-06 -1.96814e-19)
(3.92828e-05 8.43487e-06 1.9313e-19)
(0.000809336 1.66519e-05 5.35547e-19)
(0.000951227 0.000108567 6.59426e-19)
(0.000740932 6.4784e-05 0)
(0.000242094 -0.000264601 -3.99899e-19)
(0.000875093 0.000136472 3.87672e-19)
(4.36586e-05 -8.82554e-05 2.03286e-19)
(0.00147622 0.000377676 -2.57005e-18)
(0.000759125 1.42946e-06 0)
(0.000770793 0.000131406 3.75117e-19)
(9.03728e-05 0.000408945 0)
(0.00117893 0.00818899 4.6167e-19)
(0.000459841 0.000512379 -1.22375e-18)
(0.000528947 0.000959275 -1.83928e-19)
(0.00085672 2.63461e-05 -1.4496e-19)
(2.08353e-05 3.2418e-05 0)
(0.000903276 7.31764e-05 6.08132e-19)
(0.00410856 0.00772721 1.13531e-19)
(0.00414957 0.00751421 6.03896e-20)
(0.00447733 0.0075345 4.54428e-19)
(0.00444663 0.00764901 -3.37662e-19)
(0.00645827 0.0106503 8.91197e-20)
(0.00392155 0.00760607 1.20508e-20)
(0.00549642 0.00778022 -5.65047e-19)
(0.00413074 0.00779631 5.17173e-21)
(0.00518591 0.0078207 5.13517e-19)
(0.00410978 0.0077498 -5.49911e-20)
(0.00490341 0.00768401 0)
(0.00410431 0.00774542 -7.19088e-20)
(0.00466389 0.00753974 4.98353e-19)
(0.00410462 0.00774187 8.23409e-20)
(0.00451451 0.00750438 0)
(0.00410074 0.00768507 1.75928e-19)
(0.00408511 0.00755864 6.23889e-19)
(0.00447522 0.00764996 -5.63839e-19)
(0.00429772 0.00755234 4.36579e-19)
(0.00412637 0.00743481 2.19401e-19)
(0.00649586 0.0107688 -4.13559e-21)
(0.00413238 0.00771002 4.26139e-20)
(0.00647467 0.0106997 0)
(3.21065e-05 1.01362e-05 -1.9008e-19)
(0.00197256 0.00650695 2.28362e-19)
(0.000839843 -2.8522e-07 1.09003e-19)
(0.000848849 2.01323e-05 0)
(4.44178e-06 4.74734e-06 -3.99578e-19)
(0.000106075 -0.000207031 6.91721e-19)
(2.33726e-05 6.84145e-05 2.08723e-18)
(0.000800768 0.000191302 -9.02003e-20)
(0.0007169 7.46907e-06 6.99013e-19)
(5.0762e-06 -5.52495e-06 3.10362e-19)
(2.89223e-05 -4.82529e-05 -1.84726e-18)
(0.000702231 1.41995e-05 1.61671e-19)
(0.000824299 0.000119619 -3.03054e-20)
(0.000712841 -4.28522e-06 1.46821e-19)
(0.000419606 0.000647979 0)
(0.000140465 -0.000151342 1.15299e-18)
(0.000832783 2.14061e-05 1.5091e-19)
(2.51488e-05 3.02805e-05 0)
(0.000101059 0.000561005 -6.31634e-19)
(0.000610866 0.000578837 1.30385e-18)
(0.000339284 0.000724408 0)
(0.000707874 -8.92996e-06 0)
(0.000720308 6.93796e-05 1.1606e-18)
(2.70709e-05 5.33115e-05 -3.51658e-18)
(2.33305e-05 1.17313e-05 3.74056e-19)
(0.00011139 0.000157717 0)
(6.79437e-05 -4.59897e-05 0)
(7.57426e-05 0.000125012 2.00989e-19)
(0.000894088 0.00017681 3.49658e-19)
(0.000782503 -4.33046e-05 -1.37256e-18)
(2.86232e-05 4.16288e-05 0)
(0.000619627 9.47683e-05 -6.00857e-20)
(0.000728405 1.92189e-05 -1.54957e-19)
(0.000845416 5.12106e-06 1.03442e-18)
(0.000250176 0.000545755 6.32672e-19)
(0.000819994 0.000135265 0)
(3.61801e-05 -3.49007e-05 5.39274e-19)
(4.8084e-06 -1.76205e-05 -3.203e-19)
(0.00115495 -6.06186e-06 0)
(0.000926576 0.00214645 0)
(0.00105895 -0.000113798 0)
(0.000968832 0.0001912 4.27761e-19)
(0.000844303 -9.78137e-06 -2.7907e-19)
(0.000885154 0.000126268 -6.8379e-19)
(0.000724591 1.8583e-05 0)
(4.56404e-05 8.02986e-05 -1.7177e-19)
(0.000172595 0.000331379 1.08226e-18)
(0.000772963 4.03036e-05 3.18544e-23)
(0.00106332 0.000177657 -6.69907e-19)
(0.00106876 0.00011847 0)
(3.93585e-06 1.51259e-05 2.51323e-19)
(2.85062e-05 -2.29904e-05 -1.94533e-19)
(0.000720387 3.88896e-05 6.88497e-21)
(5.81345e-05 -0.000118956 0)
(0.00101717 0.000257969 9.51633e-19)
(0.00502611 0.00973282 -2.8294e-19)
(0.00311237 0.00963404 1.27054e-18)
(9.87782e-05 -0.000124017 -1.91579e-19)
(9.32364e-05 -8.60436e-05 1.86183e-18)
(0.00118224 0.000222587 1.67369e-19)
(0.00127189 0.00104473 2.34281e-19)
(0.000824041 1.58479e-05 -7.27473e-19)
(0.000217168 0.000923442 -2.3911e-19)
(0.000770535 0.000870647 -2.1879e-19)
(0.000734722 -2.45825e-05 0)
(0.000111352 0.000726911 0)
(9.97377e-05 0.000287736 -5.216e-23)
(0.000800282 -1.47105e-05 -2.79388e-23)
(0.000817114 -6.42991e-06 1.51274e-19)
(0.00260876 0.00200368 -1.23059e-18)
(0.00175436 0.00925932 -1.16846e-19)
(0.000786882 3.47236e-05 4.84836e-19)
(0.00635071 0.00403529 -1.7547e-19)
(0.00652911 0.0107268 -2.34131e-20)
(0.00464299 0.00814055 9.33881e-21)
(0.000785655 7.74993e-05 -2.14814e-18)
(0.000811793 4.10567e-05 -1.26157e-23)
(1.78011e-05 -1.38925e-05 -3.48371e-19)
(5.05773e-05 0.000102622 -3.49685e-19)
(8.85282e-05 0.00028553 8.7698e-19)
(1.76862e-05 2.22413e-05 4.90975e-19)
(9.30274e-05 0.000243122 3.7016e-19)
(0.000813621 4.93418e-05 0)
(0.00529079 0.00924818 8.25406e-21)
(0.00143778 0.000623725 -2.62004e-20)
(0.000822524 1.90379e-05 3.51554e-19)
(7.40912e-05 -9.92913e-05 0)
(0.00189666 0.00068504 5.46064e-19)
(1.55033e-05 1.25503e-05 -2.70474e-19)
(4.1181e-05 3.6157e-05 9.72967e-20)
(0.00132001 0.00140978 6.38194e-19)
(0.000796775 2.78965e-05 1.80088e-19)
(1.52057e-05 -4.00713e-06 -1.70409e-19)
(0.00203346 0.00152309 -1.05466e-18)
(0.000130239 0.000191486 -8.18707e-19)
(0.00391352 0.00849281 -1.09116e-18)
(1.34768e-05 3.47688e-06 8.82464e-20)
(0.000223937 -0.000419855 -1.23861e-18)
(7.11328e-05 -6.16242e-05 4.06136e-20)
(0.00146457 0.000925879 0)
(0.00100275 0.000144147 -4.44822e-22)
(0.000423748 0.000855311 -4.02552e-20)
(0.000822505 1.91417e-05 -2.28958e-19)
(8.57764e-05 0.000199695 7.35105e-19)
(6.07586e-05 -7.55944e-05 4.04527e-19)
(2.39596e-05 2.04428e-05 -9.48221e-20)
(4.20519e-05 0.000108615 -3.20574e-19)
(0.000193602 -0.000361484 -5.38737e-19)
(0.00323206 0.00341746 2.59004e-21)
)
;

boundaryField
{
    back
    {
        type            empty;
    }
    ingreso
    {
        type            fixedValue;
        value           uniform (0.0008 0 0);
    }
    salida
    {
        type            zeroGradient;
    }
    front
    {
        type            empty;
    }
    defaultFaces
    {
        type            noSlip;
    }
}


// ************************************************************************* //
