/*--------------------------------*- C++ -*----------------------------------*\
  =========                 |
  \\      /  F ield         | OpenFOAM: The Open Source CFD Toolbox
   \\    /   O peration     | Website:  https://openfoam.org
    \\  /    A nd           | Version:  8
     \\/     M anipulation  |
\*---------------------------------------------------------------------------*/
FoamFile
{
    version     2.0;
    format      ascii;
    class       surfaceScalarField;
    location    "0.8";
    object      phi;
}
// * * * * * * * * * * * * * * * * * * * * * * * * * * * * * * * * * * * * * //

dimensions      [0 3 -1 0 0 0 0];

internalField   nonuniform List<scalar> 
3021
(
2.10093e-10
-2.10093e-10
-1.91771e-08
-2.13632e-08
3.00858e-08
1.04545e-08
-1.91401e-08
-4.55192e-09
2.07312e-08
2.96087e-09
-3.39778e-08
-2.52035e-09
1.73581e-08
8.63786e-10
-1.34631e-08
1.25993e-08
8.91501e-09
-6.9276e-09
7.16591e-09
-9.15332e-09
1.66118e-10
-1.58298e-08
1.55631e-08
1.00625e-10
-7.46962e-10
3.37779e-10
-1.88214e-08
1.92306e-08
1.07564e-08
-9.52328e-09
-6.79163e-09
5.55846e-09
-1.47794e-08
-3.32589e-09
1.09577e-08
7.14759e-09
-1.20616e-08
-1.84028e-08
1.12873e-08
6.41792e-09
-6.02037e-09
1.1464e-08
-1.18616e-08
1.73152e-08
3.56564e-09
-1.16944e-08
-9.18646e-09
-5.27885e-09
-1.73726e-08
7.87207e-09
6.36172e-09
-7.51027e-09
-6.23975e-09
7.3883e-09
-7.54542e-09
5.16532e-09
8.44757e-09
-6.06747e-09
-4.21205e-09
-2.20388e-09
6.41594e-09
-3.28538e-09
-9.26673e-10
2.71481e-10
3.44234e-10
-2.26586e-10
-3.89129e-10
5.14325e-11
-3.6083e-10
-5.66524e-11
3.6605e-10
-1.04273e-08
-2.81459e-09
1.59214e-08
-2.67945e-09
-2.32765e-08
1.72507e-08
1.85224e-08
3.47025e-09
-3.2796e-09
-2.38924e-08
5.03594e-09
1.88564e-08
-6.66886e-09
1.56335e-09
8.30911e-09
-3.2036e-09
2.937e-10
-8.88288e-09
6.83076e-09
1.75842e-09
2.24151e-09
-1.26364e-08
-5.70074e-10
1.09649e-08
9.80446e-09
-2.5639e-09
-1.75618e-09
-5.48438e-09
2.52475e-08
-2.10742e-08
-1.96356e-08
1.54623e-08
2.64217e-08
-2.19427e-08
-2.02605e-08
1.57816e-08
2.78971e-08
-2.31338e-08
-2.13491e-08
1.65858e-08
-5.1651e-09
6.2095e-09
-1.67752e-08
1.57308e-08
-2.18246e-08
-1.49105e-08
6.81376e-09
2.99213e-08
6.68938e-10
-7.4667e-10
7.3782e-10
-6.60088e-10
-5.66899e-09
2.47796e-09
-3.47783e-09
7.46141e-09
3.55982e-09
-4.65951e-09
2.60156e-09
1.0136e-08
4.57772e-09
1.38227e-08
1.0973e-09
-1.43981e-08
-5.21899e-10
9.22863e-09
-5.87936e-09
3.14616e-09
-6.49543e-09
-1.47085e-08
1.16893e-08
7.8626e-09
-4.84336e-09
-7.95136e-09
3.38823e-09
1.94364e-10
8.42149e-10
-3.99557e-10
-6.36955e-10
-5.71093e-11
5.55135e-10
9.05834e-11
-5.88609e-10
-3.81981e-08
1.70891e-08
1.65571e-08
-2.43734e-09
-4.38766e-09
6.825e-09
1.35821e-08
1.41499e-09
-1.27556e-08
9.44408e-10
1.32576e-08
-3.79312e-10
-2.37239e-09
6.67968e-09
4.85317e-09
-9.16046e-09
2.49958e-09
-5.39533e-09
-2.77324e-09
8.57223e-10
4.16401e-09
5.73521e-09
-6.15769e-10
3.37339e-10
-1.24033e-09
1.51876e-09
-6.19237e-09
-9.93452e-09
6.60361e-09
4.3034e-10
-2.20247e-10
-1.46589e-08
-2.79742e-08
2.12699e-08
1.69323e-08
1.91755e-08
-2.89339e-08
-7.1739e-09
7.83973e-09
6.06168e-09
-6.86445e-09
-7.03697e-09
1.90263e-08
-3.6871e-09
-6.75217e-11
-3.53774e-10
4.10839e-09
-1.11738e-08
3.38419e-09
2.22114e-08
-1.44218e-08
-3.99912e-09
5.042e-09
-6.17252e-09
5.12964e-09
-5.51447e-09
6.15828e-09
1.85576e-09
1.35845e-08
1.66501e-09
-1.41522e-08
-1.29905e-09
-2.09201e-09
1.4149e-09
1.97617e-09
-1.90678e-08
-2.05838e-08
2.84778e-08
-5.75131e-09
5.56503e-09
-2.1544e-09
2.34068e-09
8.94618e-10
-9.30119e-10
2.32795e-10
-1.97293e-10
-2.75695e-09
1.17182e-09
-9.66527e-10
2.55166e-09
4.2379e-10
9.41811e-10
-4.70983e-10
8.71066e-09
1.58041e-09
-5.56455e-09
-4.72652e-09
-9.44584e-10
-2.72365e-10
1.21695e-09
1.76865e-09
-3.75921e-09
-3.52391e-09
5.56406e-10
-8.1059e-10
-5.75436e-09
6.00855e-09
2.5755e-09
3.88797e-09
-4.69482e-09
1.83489e-09
-9.09617e-10
-1.53234e-08
-1.04137e-08
-4.81108e-09
7.03464e-09
8.19017e-09
-1.2041e-08
-1.37392e-08
2.01708e-08
5.60938e-09
-6.86028e-09
4.47352e-09
3.02839e-08
-6.54436e-09
4.14339e-09
2.88226e-08
-6.52734e-09
3.92537e-09
2.78495e-08
6.4743e-09
-3.93764e-09
-6.30216e-09
3.7655e-09
-9.35818e-10
5.53776e-13
5.14455e-12
3.01415e-10
6.5964e-10
-8.4661e-10
-1.14445e-10
-1.49401e-08
1.75416e-08
1.03315e-08
-1.09692e-08
8.92841e-09
-8.29071e-09
-4.85441e-09
2.23366e-10
-7.15136e-09
-2.64913e-09
9.57712e-09
-4.8924e-09
3.18933e-09
1.41092e-09
-2.03978e-09
6.28859e-10
9.3211e-09
-5.7631e-09
-8.4504e-09
-5.24392e-10
5.39558e-10
6.53771e-10
-1.76257e-08
1.05777e-08
-8.0219e-09
1.50699e-08
7.51355e-09
-5.74106e-09
-1.21608e-09
5.60911e-09
-8.52323e-09
9.18923e-09
-6.27511e-09
9.56868e-09
-8.12352e-09
1.35247e-10
-1.08482e-08
-7.24322e-10
-1.44718e-09
1.30197e-08
-1.02924e-09
2.41835e-09
1.67059e-09
-3.0597e-09
6.43988e-09
-5.18115e-09
9.88186e-09
-1.11406e-08
-9.5204e-09
-1.39369e-09
6.59072e-11
-2.38451e-09
8.52471e-09
3.08843e-09
6.18506e-10
1.21395e-08
-7.08348e-09
-2.11421e-09
9.42106e-09
-9.95911e-09
2.13014e-09
-4.7358e-09
1.25648e-08
3.82888e-09
-5.4583e-09
1.62942e-09
-1.94186e-08
1.94362e-08
6.87312e-11
-8.63673e-11
1.84328e-08
-9.59182e-11
5.84919e-11
-1.83954e-08
-1.77179e-08
1.77441e-08
4.52707e-11
-7.14438e-11
-1.79288e-08
-7.46603e-11
1.79676e-08
3.5877e-11
1.73021e-08
-4.04063e-11
-1.72907e-08
2.89448e-11
6.01236e-12
-6.9079e-12
1.86379e-08
-1.8637e-08
-1.77228e-08
-4.69976e-12
-4.66643e-13
1.77279e-08
-1.86868e-11
-1.79507e-08
1.79614e-08
7.97418e-12
4.52663e-12
7.91787e-13
1.70265e-08
-1.70319e-08
1.89504e-08
-3.10611e-11
-1.89495e-08
3.01697e-11
5.99292e-12
1.11192e-11
1.85845e-08
-1.86016e-08
5.52875e-12
1.69382e-11
1.7631e-08
-1.76535e-08
-1.76739e-08
1.76601e-08
1.97533e-11
-5.8734e-12
-1.86257e-08
1.86293e-08
2.02594e-11
-2.38549e-11
6.85987e-11
-8.10147e-11
-1.71181e-08
1.71305e-08
1.76838e-08
-1.73317e-10
5.72214e-11
-1.75677e-08
1.73191e-08
-5.16241e-11
-1.7314e-08
4.65239e-11
-1.70269e-08
1.70422e-08
-1.81833e-11
2.91186e-12
1.72332e-08
-5.49284e-10
1.57961e-10
-1.68419e-08
1.89415e-08
-9.1937e-11
-1.89392e-08
8.95804e-11
-3.84433e-09
-1.03905e-08
-1.09657e-08
8.30207e-09
1.44873e-11
1.99191e-09
4.67272e-09
-1.50296e-09
-5.16167e-09
-1.31938e-08
9.95782e-09
-7.19138e-09
4.48941e-10
9.61978e-10
2.44707e-09
-1.14115e-08
1.06017e-08
-1.63732e-09
2.68115e-09
-9.75448e-09
-2.17258e-10
5.24706e-09
-6.48492e-09
1.45512e-09
-3.2903e-09
1.73284e-09
3.54936e-09
-8.45862e-10
-2.98609e-10
6.20079e-10
-1.13744e-08
-2.34858e-10
-8.75979e-10
1.75019e-10
-1.14359e-09
-5.57349e-09
-9.49353e-09
3.65553e-09
6.36729e-10
4.70928e-09
-5.56327e-09
8.04244e-09
-1.50152e-09
2.37409e-09
-2.38688e-09
-8.98756e-09
8.20656e-09
7.70196e-11
-8.28358e-09
9.77214e-10
-1.05596e-09
5.0254e-10
2.36296e-09
-1.18873e-09
-2.00921e-09
8.34981e-10
1.95501e-09
-4.6716e-10
4.91324e-09
-1.0162e-08
6.10601e-09
3.06761e-09
-2.97429e-09
-2.2972e-09
-9.22668e-09
1.99887e-08
4.69217e-10
-7.35507e-10
-1.79049e-09
2.05678e-09
6.35363e-09
8.72531e-09
-9.21303e-09
5.33837e-09
3.29788e-09
1.22561e-09
1.33033e-08
-3.04983e-10
1.09014e-09
-1.02002e-09
1.96014e-09
4.94158e-09
-1.76031e-08
-1.46471e-09
-8.13994e-09
5.98787e-10
-3.27306e-10
6.63369e-10
5.60535e-09
1.8714e-09
1.7971e-10
3.11855e-10
1.11352e-09
1.09652e-09
-8.6669e-10
-1.34335e-09
-8.01382e-10
7.20429e-10
2.29765e-09
-2.2167e-09
1.19276e-08
1.31392e-08
2.43762e-10
4.19607e-10
-1.35275e-08
1.33288e-08
1.42432e-09
1.73099e-08
-6.73645e-09
3.3665e-10
-4.37867e-10
-7.74762e-10
1.48505e-09
2.79965e-09
-4.12957e-11
5.64664e-09
-2.74715e-09
-5.38228e-10
-7.5022e-10
-2.27794e-09
8.11596e-10
-9.6182e-09
-1.8773e-10
8.99434e-09
7.59868e-10
-4.3275e-09
-1.29989e-08
1.21453e-08
2.05311e-09
-5.49343e-09
6.63149e-09
2.29976e-09
-8.88813e-10
-6.97561e-09
7.00688e-09
-7.58528e-09
7.55401e-09
-1.59006e-08
7.83248e-09
-6.01417e-09
1.40822e-08
4.99187e-10
7.4404e-10
-9.01191e-09
1.10893e-08
8.23018e-09
-1.03075e-08
-1.51433e-10
-1.8735e-09
-4.04435e-10
1.08831e-08
-1.67509e-09
2.54964e-09
8.9304e-09
-1.05996e-08
-8.80422e-10
7.89759e-10
-7.28013e-10
1.13273e-10
2.71512e-09
-3.26017e-09
-2.74524e-09
1.22308e-08
-1.23266e-08
7.23629e-09
-7.14048e-09
-6.22665e-09
4.66672e-09
-5.38685e-09
6.75039e-10
8.01362e-10
-1.46462e-09
7.38922e-09
2.89563e-09
-2.82518e-09
1.6624e-09
-1.12561e-08
3.78095e-09
8.2867e-09
-7.30457e-09
1.06668e-08
-7.2066e-09
7.98441e-10
-8.12789e-12
-4.72042e-09
-9.20799e-09
7.32084e-09
6.60757e-09
-5.01736e-09
1.04489e-08
1.19999e-09
-1.1028e-09
2.79627e-10
-1.31693e-09
7.511e-12
1.30756e-09
1.86076e-12
-5.44909e-09
-1.06677e-08
8.50662e-09
7.0743e-09
1.17132e-08
6.19767e-10
-1.40802e-08
1.74727e-09
-6.99758e-10
3.99755e-10
-1.7098e-10
7.66319e-09
-1.10764e-11
1.87946e-08
-1.88382e-08
5.46545e-11
-1.72497e-08
1.7286e-08
-1.7328e-11
-1.88933e-11
-1.79142e-08
-2.21181e-11
1.79311e-08
5.20034e-12
-1.89486e-08
8.8805e-12
1.8938e-08
1.78943e-12
3.7531e-11
1.89907e-08
-1.8999e-08
-2.91538e-11
-1.74963e-08
1.74853e-08
3.34566e-12
-1.74997e-08
-1.72636e-08
9.24389e-12
4.66967e-12
-1.87989e-08
-2.16032e-11
1.8788e-08
3.24571e-11
6.48738e-12
-1.78359e-08
1.77536e-08
7.58153e-11
-3.08302e-11
-1.88326e-08
6.45221e-11
-1.79385e-08
1.5375e-11
8.87525e-12
1.74537e-08
-1.74677e-08
1.40725e-11
1.44159e-11
-1.88138e-08
1.88236e-08
-2.41665e-11
1.70791e-08
-1.70773e-08
-1.79169e-12
1.60972e-11
1.87939e-08
-1.88014e-08
-8.64064e-12
1.29222e-11
1.72959e-08
-1.73198e-08
1.09834e-11
7.73643e-12
1.88364e-08
-1.88378e-08
-6.37937e-12
1.72884e-08
-1.72788e-08
-6.28947e-12
-3.29053e-12
6.8567e-13
1.55917e-08
-1.55924e-08
-1.88145e-08
1.87999e-08
-1.07276e-11
2.53255e-11
1.7008e-08
-3.31038e-11
-1.69749e-08
1.62004e-08
-1.6218e-08
1.76612e-11
-1.74622e-08
1.74314e-08
-1.65779e-08
1.65843e-08
1.74985e-08
-1.74841e-08
-1.70455e-08
-2.29297e-11
1.70685e-08
-1.75041e-08
1.75118e-08
1.7414e-08
3.96409e-11
-1.65648e-08
1.65349e-08
2.98348e-11
1.74715e-08
-1.74554e-08
9.15556e-12
-1.88459e-08
1.88322e-08
4.50449e-12
1.91927e-12
-1.79766e-08
1.79756e-08
-9.02332e-13
-3.09079e-11
-1.88352e-08
5.16462e-11
-1.50114e-11
1.78522e-08
-1.78466e-08
9.38727e-12
-1.45798e-11
1.88412e-08
-1.88389e-08
1.22808e-11
-4.53918e-11
-1.88538e-08
1.88422e-08
5.70248e-11
1.48278e-11
-1.90024e-08
1.90109e-08
-2.33529e-11
2.37326e-11
1.79495e-08
-1.79543e-08
-1.88972e-11
1.74861e-08
-1.75007e-08
-1.75048e-08
1.74739e-08
1.71821e-08
3.97521e-12
-1.71862e-08
1.39298e-13
2.60512e-11
1.8901e-08
-1.89089e-08
-1.82141e-11
-1.70892e-08
1.71153e-08
-1.88149e-08
1.73108e-11
1.88044e-08
-6.81803e-12
-1.71954e-08
7.24252e-12
1.71861e-08
2.06823e-12
-4.29608e-11
1.80939e-08
-1.79554e-08
-9.55329e-11
1.88976e-08
-1.89232e-08
1.82236e-12
2.37995e-11
-1.79338e-08
1.79683e-08
-3.09233e-11
-3.57427e-12
1.19745e-11
-1.73214e-08
1.73132e-08
-3.78062e-12
1.94258e-08
-1.04309e-10
-2.33055e-08
3.98401e-09
1.71551e-08
1.0927e-11
-1.71771e-08
1.10673e-11
-1.79577e-08
1.48499e-12
2.23497e-11
1.72134e-08
-2.56435e-12
-1.72145e-08
3.7056e-12
-1.816e-08
1.802e-08
-3.51067e-11
1.75115e-10
-1.85449e-08
-7.23247e-11
4.57173e-10
-1.62194e-08
1.62431e-08
1.61927e-08
-1.62356e-08
1.7939e-08
8.72087e-12
7.23207e-11
-6.03911e-12
1.73319e-08
-3.74291e-11
-9.94558e-12
-1.78497e-08
1.78811e-08
-2.14127e-11
-1.75802e-08
1.75348e-08
-1.78612e-08
-2.68987e-12
1.78347e-08
2.91359e-11
-1.75009e-08
1.75101e-08
1.89327e-08
-3.14552e-11
-3.65341e-12
1.566e-08
-1.5648e-08
-1.72279e-08
-2.20891e-12
1.72274e-08
2.68342e-12
-1.88093e-08
1.88092e-08
6.99255e-13
-6.08093e-13
-8.00776e-11
1.72066e-08
-1.72961e-08
1.69598e-10
8.57795e-12
1.65578e-08
-1.65664e-08
1.56702e-11
1.7884e-08
-1.78616e-08
-3.80756e-11
1.09075e-11
-1.88094e-08
-1.6398e-11
-1.65515e-08
1.65672e-08
1.70863e-08
-7.14094e-12
-1.62346e-08
-1.08743e-11
1.62455e-08
-1.74089e-08
1.74198e-08
-1.67167e-08
1.93198e-10
1.65236e-08
-9.15907e-12
-1.89434e-08
1.897e-08
-1.74438e-11
2.7213e-12
1.79835e-08
-1.7988e-08
1.83479e-12
1.65927e-08
-1.66077e-08
-1.18425e-11
-1.71775e-08
1.71864e-08
2.91261e-12
-1.62516e-08
1.62543e-08
-1.33851e-11
-1.59398e-08
1.59532e-08
7.595e-13
1.89428e-08
-1.89485e-08
4.99468e-12
3.18569e-11
1.73325e-08
-1.73442e-08
-2.01033e-11
-1.71652e-08
-2.7129e-11
1.71564e-08
3.5962e-11
2.56976e-12
1.89914e-08
-1.89925e-08
-1.44751e-12
-1.71096e-08
-1.00022e-11
1.71196e-08
-2.69622e-12
1.66166e-08
-1.66139e-08
1.71113e-08
-1.71205e-08
1.60191e-08
-1.60991e-08
2.58737e-10
1.62253e-08
-1.64841e-08
-1.78878e-08
1.78689e-08
1.42142e-11
4.73145e-12
-1.3694e-11
1.73185e-08
-1.73132e-08
8.44526e-12
-1.70675e-08
-2.17251e-11
-2.91006e-11
1.79717e-08
2.57693e-11
-1.56283e-08
-3.02221e-12
1.56314e-08
-1.61963e-08
-2.30664e-11
1.39956e-11
4.55197e-11
1.70956e-08
-1.61503e-08
-3.29484e-10
1.64798e-08
-1.55987e-08
1.56306e-08
-9.42852e-12
-1.70581e-08
1.89384e-08
-3.18772e-11
2.62399e-11
-1.61869e-08
-9.36405e-12
1.61915e-08
8.8871e-12
1.74659e-08
-1.46844e-11
-1.74512e-08
-1.76037e-08
2.3488e-11
1.65545e-08
-1.65551e-08
6.05677e-13
-1.7134e-08
1.71347e-08
2.51047e-11
-1.56534e-08
1.56304e-08
-1.56441e-08
7.82334e-12
1.90317e-08
-5.05939e-11
-1.90191e-08
3.79444e-11
1.69949e-10
1.70092e-08
-1.71792e-08
6.4416e-11
-1.6138e-08
1.60735e-08
-1.54899e-08
1.54927e-08
-2.85639e-12
-1.80874e-08
-1.16572e-10
1.80107e-08
1.93236e-10
1.87474e-08
1.32123e-09
-1.98987e-08
1.48037e-11
5.42305e-10
1.86591e-08
-1.10748e-09
-1.70196e-08
-3.64864e-10
1.73844e-08
1.71917e-08
8.65572e-12
-1.72006e-08
1.65841e-13
2.3857e-11
-1.59556e-08
-9.49098e-12
1.59651e-08
3.68949e-12
1.72542e-08
-1.72738e-08
1.59542e-11
-1.79974e-08
3.40793e-12
1.79793e-08
1.46882e-11
1.88465e-08
-1.21212e-11
2.01618e-12
1.89611e-08
-2.70453e-11
8.67148e-12
-2.34935e-12
1.56328e-08
-1.56369e-08
1.56406e-08
-1.55683e-08
-3.21676e-11
1.56004e-08
-1.55793e-08
-1.93715e-11
1.7299e-08
2.28683e-11
1.06e-11
1.80388e-08
1.88672e-11
-5.94218e-12
-1.80517e-08
-9.12148e-12
-1.7225e-08
3.87443e-11
-1.60971e-08
1.61135e-08
-1.63815e-11
1.88584e-12
1.89443e-08
1.49458e-11
1.59432e-08
-1.59523e-08
2.92462e-10
-1.75563e-08
-4.73513e-11
-1.71011e-08
1.71183e-08
-1.71709e-11
-1.71077e-08
3.01571e-12
-1.59558e-08
1.59635e-08
-7.70732e-12
1.72967e-08
1.94365e-11
1.76529e-08
8.86744e-10
-1.82809e-08
-2.31259e-11
9.17667e-12
-6.23218e-11
1.90727e-08
2.13674e-11
-1.62312e-08
1.80842e-08
-1.80381e-08
1.83066e-11
-1.74259e-08
-1.3041e-10
1.80391e-08
4.19013e-12
-1.80152e-08
-2.81414e-11
-2.68628e-11
-1.55414e-08
-2.5528e-11
1.61915e-08
-1.6166e-08
1.91e-11
1.80089e-08
1.75122e-11
1.24342e-11
1.79582e-08
2.51639e-11
1.61939e-08
-1.61934e-08
-5.4732e-13
1.73354e-08
2.2576e-11
-1.73546e-08
-3.41379e-12
-1.74113e-08
2.42203e-12
1.72836e-08
2.49629e-11
4.45754e-10
1.9607e-08
3.07704e-10
-2.03604e-08
-1.55487e-08
-3.40189e-10
1.58889e-08
-1.28728e-11
-1.59098e-08
1.59226e-08
2.19458e-11
-2.57664e-11
-1.80295e-08
2.14923e-11
1.80041e-08
3.94975e-12
-3.32316e-11
1.62248e-08
1.89946e-08
-1.92448e-08
2.02834e-10
1.71525e-08
2.63227e-11
1.74791e-08
-1.32197e-11
-1.59627e-08
7.12004e-12
-1.78971e-08
4.45395e-11
-1.59011e-08
1.59035e-08
-1.59224e-08
1.88594e-11
1.56639e-08
-1.5651e-08
-1.61485e-08
1.76163e-11
-8.01227e-12
-1.89806e-08
8.50366e-12
1.89643e-08
7.77174e-12
-1.75181e-11
7.09092e-11
1.87412e-08
5.19669e-12
-4.75175e-11
1.17041e-11
-3.59347e-11
-1.89962e-08
-1.74098e-08
-1.4671e-12
1.59505e-08
-1.55188e-08
-3.7438e-12
1.7993e-08
-3.97912e-11
1.6735e-08
-1.61902e-08
5.22814e-11
5.43948e-11
1.59647e-08
-1.78944e-08
1.78676e-08
2.4094e-11
-1.3977e-12
-1.89847e-08
5.49583e-12
-1.59676e-08
1.71486e-08
-1.71282e-08
-3.37884e-11
-1.71817e-08
-9.46373e-12
2.59726e-11
1.7281e-08
-7.31237e-12
-1.95544e-11
1.70557e-08
5.56397e-11
-3.65209e-12
1.56636e-08
4.87179e-12
-1.56333e-08
1.56284e-08
-5.55449e-12
-1.7202e-08
-3.53904e-11
-1.71209e-08
1.71294e-08
1.65939e-08
-1.66038e-08
-1.79687e-12
-1.59609e-08
-1.73398e-08
1.73334e-08
3.35301e-12
-3.90588e-12
-1.59637e-08
6.66609e-13
1.72337e-08
-4.98729e-10
1.59598e-08
-9.28673e-12
3.10952e-11
1.62394e-08
-1.59633e-08
1.59742e-08
-1.6216e-08
1.7271e-08
1.49573e-11
-1.59282e-11
-9.58349e-12
1.70051e-08
1.25679e-11
-3.24524e-11
1.72973e-08
1.22705e-11
4.74734e-13
1.86441e-11
1.55854e-08
-1.72057e-08
-1.77711e-11
4.171e-11
1.79177e-08
9.38408e-12
1.18664e-11
-6.73557e-12
2.73472e-11
-1.61981e-08
1.62158e-08
-1.71223e-08
-2.41285e-12
-1.71622e-08
-3.59233e-11
1.03326e-10
-1.6339e-08
-1.71832e-11
-1.26978e-11
3.29225e-12
-1.56097e-08
1.66033e-08
-1.65891e-08
2.99944e-11
1.10683e-11
4.66942e-10
-1.71294e-08
1.66625e-08
1.07942e-11
-1.97508e-11
1.7238e-08
2.30048e-11
-1.78292e-08
-2.93892e-11
1.74371e-08
-2.1817e-11
1.73512e-08
-5.91691e-11
-1.73373e-08
4.52818e-11
1.62372e-08
1.34785e-09
-1.56552e-11
8.96056e-12
1.69427e-08
1.0072e-11
-3.85199e-11
-1.88168e-08
1.88503e-08
-4.67012e-11
-1.79484e-08
9.63304e-11
-1.82582e-08
3.64016e-10
1.8363e-11
-1.53844e-11
1.72018e-08
9.7663e-12
-2.00743e-11
7.81718e-10
1.26216e-10
-1.59629e-08
-1.38494e-11
1.59767e-08
-1.2314e-11
2.52597e-11
-4.07915e-12
-1.55886e-08
1.54935e-08
9.50174e-11
-1.87802e-08
-2.67787e-11
1.94868e-11
7.68269e-11
-2.01131e-10
1.9197e-08
-1.62401e-08
-1.89767e-08
-3.28845e-11
-1.58338e-08
1.58296e-08
4.25389e-12
1.79462e-08
1.6122e-11
-1.22128e-11
1.64277e-10
-1.59232e-08
1.58886e-08
3.45612e-11
-1.65731e-08
1.71208e-08
1.65901e-08
-1.6555e-08
1.65637e-08
-1.61296e-08
-1.56035e-08
-1.57562e-09
7.67278e-11
-2.13879e-10
1.82214e-08
3.2523e-11
4.414e-11
-1.62344e-08
-1.69802e-08
-1.54913e-08
1.47166e-12
-2.22826e-11
-1.43649e-11
-4.59158e-12
-1.68856e-08
1.68908e-08
-5.19807e-12
1.74632e-08
-1.6247e-08
-1.54798e-08
1.5463e-08
1.67606e-11
-1.43959e-12
-1.57351e-11
-1.55031e-08
-1.35386e-11
1.7358e-08
-1.73561e-08
-1.82256e-12
-1.6407e-08
6.80258e-11
-1.79719e-08
4.13226e-12
4.8303e-10
-1.58791e-08
1.58584e-08
2.07036e-11
7.92786e-12
1.8909e-08
1.99608e-11
-1.14319e-10
-1.54344e-08
9.37722e-12
1.5959e-08
-1.59495e-08
-1.68593e-08
3.75192e-10
1.80042e-08
-4.98224e-12
-6.25187e-12
-1.73738e-08
1.73341e-08
3.96888e-11
1.80283e-08
2.00319e-11
-1.74505e-08
-4.01396e-11
-1.64916e-08
1.6487e-08
4.5577e-12
-3.57941e-11
-1.692e-08
1.69488e-08
-2.88632e-11
-1.70899e-08
-1.4576e-08
1.51093e-08
-5.33319e-10
-1.73852e-11
-1.71214e-08
1.74721e-08
-2.35174e-10
-3.17398e-11
2.31773e-10
-3.3107e-11
-1.6064e-08
1.12309e-11
-1.68753e-08
-1.02968e-11
4.25316e-11
-1.73224e-08
1.73369e-08
-1.45258e-11
1.60192e-08
-1.58992e-08
-1.20026e-10
-1.65219e-08
3.03028e-11
2.62193e-12
-3.25632e-11
-1.73378e-08
1.87719e-11
1.73663e-08
-8.28758e-12
1.95611e-11
1.30197e-11
-2.9143e-11
-9.34325e-12
-1.59961e-08
1.59698e-08
2.62732e-11
-1.59533e-08
3.01406e-11
-1.64702e-08
1.64721e-08
-1.92276e-12
1.30319e-10
6.90573e-12
5.23776e-12
-5.14517e-09
-2.60638e-11
1.30755e-11
-1.03786e-11
1.24789e-12
-3.33468e-11
2.99337e-11
-1.68835e-08
8.18001e-12
1.59858e-08
-1.59882e-08
2.38369e-12
6.16211e-12
3.25106e-11
4.0234e-11
3.6956e-11
-1.5884e-08
1.58845e-08
-4.40535e-13
-2.1644e-11
-1.61004e-11
-1.69053e-08
1.59343e-11
1.68894e-08
3.98251e-11
-1.649e-08
1.64861e-08
3.83551e-12
-3.11997e-11
7.13853e-12
1.64667e-08
2.03515e-11
-1.73143e-08
-8.12222e-12
-4.04768e-11
1.60446e-08
-1.60685e-08
2.39538e-11
4.57654e-12
6.38166e-12
-1.54481e-08
1.61602e-08
-7.12111e-10
6.54203e-12
-1.60183e-08
1.59954e-08
2.29212e-11
-1.69189e-08
1.68992e-08
1.97361e-11
3.58429e-12
-1.55177e-08
2.11846e-11
1.54965e-08
1.58322e-08
-1.58115e-08
-2.07531e-11
1.73418e-08
-1.72923e-08
-4.95057e-11
1.69534e-12
2.62757e-11
-1.58328e-08
1.5849e-08
-1.62117e-11
-1.60912e-12
-1.73763e-08
1.73768e-08
-5.16649e-13
-1.69135e-08
-5.42734e-12
-1.73191e-08
4.82846e-12
1.5452e-08
-1.54597e-08
7.73546e-12
-1.69124e-08
-1.10296e-12
5.3634e-12
-1.54264e-08
1.54191e-08
7.21537e-12
1.64669e-08
-1.64063e-08
-6.05253e-11
-6.73299e-10
-1.47748e-08
-1.68949e-08
1.13825e-11
-1.64687e-08
-1.4987e-12
1.68904e-08
-1.69125e-08
2.21502e-11
-1.64325e-08
1.64502e-08
-1.76997e-11
-1.5426e-08
-3.35484e-13
1.60383e-08
-1.60449e-08
6.62443e-12
-2.30623e-11
1.5824e-08
-1.58141e-08
-9.88789e-12
-1.54447e-08
1.54433e-08
1.40968e-12
-1.72802e-08
1.72878e-08
-7.56672e-12
-1.64176e-08
1.64179e-08
-3.10065e-13
-1.73026e-08
-1.64788e-11
-1.64101e-08
-7.56223e-12
1.76193e-08
-1.74586e-08
-1.60729e-10
1.67359e-08
-1.65856e-08
-1.50276e-10
1.68953e-08
-1.68899e-08
-5.42326e-12
-1.60406e-08
1.602e-08
2.05761e-11
1.8073e-08
-4.53672e-10
-9.99932e-12
-1.7354e-08
-2.12443e-12
-7.1801e-13
1.64802e-08
-8.11551e-12
-1.45781e-11
-1.71212e-11
-1.84923e-11
-2.31413e-12
1.54457e-08
-1.5443e-08
-2.67573e-12
1.68795e-08
1.09207e-11
-2.56714e-11
1.48729e-08
-1.49732e-08
1.00285e-10
1.6989e-08
-1.07162e-11
-1.69783e-08
-1.3918e-11
-1.55038e-08
-4.10417e-12
-1.60644e-08
-9.73506e-12
1.68409e-08
-2.26778e-10
-1.66141e-08
1.72892e-08
2.1585e-11
-1.72852e-08
5.03464e-12
-5.03401e-11
-1.68621e-08
-1.72839e-08
-1.36925e-12
9.42575e-13
-1.21594e-09
-1.33601e-08
1.58055e-08
-1.58127e-08
7.18343e-12
-1.00619e-11
-1.48479e-11
-1.7396e-08
2.08512e-08
-3.45517e-09
1.69848e-08
4.23263e-12
1.72888e-11
-1.54884e-08
8.61468e-12
1.71778e-08
-4.41923e-10
1.69626e-08
2.22407e-11
-1.69187e-08
2.3838e-11
1.69379e-08
2.46323e-11
1.54753e-08
-2.88695e-11
-1.54464e-08
-1.04176e-11
1.92075e-11
-1.30937e-11
1.54647e-08
-1.66647e-12
-1.96464e-11
-5.55175e-10
1.54508e-08
1.17291e-12
-8.82008e-12
-1.55616e-08
-3.37642e-10
-6.06946e-12
-6.88627e-10
-1.16798e-10
-1.18721e-10
7.8317e-12
-1.54604e-08
7.19362e-13
1.58301e-08
1.89079e-11
-5.94644e-12
-1.58267e-08
1.25669e-11
1.58165e-08
1.30762e-11
-1.01888e-11
4.68933e-11
4.2457e-12
3.96367e-10
5.03348e-10
-2.40075e-10
2.43966e-10
-6.35329e-10
-1.40183e-09
2.20579e-09
1.06744e-09
-8.41336e-10
2.93558e-09
1.97676e-09
-1.27848e-09
-1.60201e-09
9.03731e-10
-9.61005e-09
-3.20893e-09
1.20947e-08
-1.13281e-09
-2.03161e-09
1.04076e-09
2.12366e-09
-9.79071e-10
-4.21157e-10
-1.20076e-09
8.21404e-09
-1.76929e-08
2.04695e-11
-6.92977e-11
1.77808e-08
1.94137e-08
-1.94136e-08
5.4553e-11
-8.33896e-12
-1.76412e-08
1.76541e-08
-2.40966e-11
-1.69878e-08
1.70165e-08
-6.47073e-11
1.84916e-08
6.59649e-11
1.78327e-08
-1.7869e-08
1.85519e-08
-1.85738e-08
1.84619e-08
-1.84615e-08
-3.37813e-11
-1.7316e-08
1.73014e-08
3.58249e-11
1.84936e-08
-7.61014e-12
-2.77893e-11
2.7392e-11
1.781e-08
1.94319e-08
-1.94237e-08
-1.45905e-11
1.84603e-08
-1.84111e-08
-3.049e-11
-1.77716e-08
-4.31346e-12
1.78119e-08
-2.26165e-11
1.94189e-08
1.49653e-11
1.70936e-11
-1.89917e-11
-1.83874e-08
1.94333e-08
-1.9424e-08
-3.34743e-11
-1.77839e-08
1.78199e-08
-3.25978e-11
1.78018e-08
-2.88735e-11
-1.78047e-08
-1.95011e-08
1.95045e-08
2.10099e-12
-1.94838e-08
1.949e-08
-7.63771e-12
1.84704e-08
-2.55443e-11
-1.8473e-08
-1.77882e-08
-1.14132e-11
1.84893e-08
-2.68818e-11
1.94671e-08
-1.71463e-11
-1.94828e-08
-1.01388e-11
1.94635e-08
-1.97939e-11
1.77939e-08
-1.2193e-11
-1.90448e-11
-5.88209e-12
-7.99184e-11
1.94802e-08
1.63151e-11
1.85238e-08
-3.05656e-11
1.89502e-08
-1.04793e-11
-1.77438e-08
-1.76074e-12
-1.8447e-08
-2.09053e-11
1.8497e-08
-1.95393e-08
1.95376e-08
1.28748e-11
-1.77129e-08
1.07819e-11
-2.6967e-11
-1.77048e-08
-1.59943e-13
-2.75705e-11
-1.94289e-08
-8.73879e-12
1.89471e-08
-1.89224e-08
1.8522e-08
3.45681e-12
1.89259e-08
2.853e-11
-1.85037e-08
1.85074e-08
5.4886e-12
-1.9514e-08
1.95105e-08
1.2222e-11
-1.77096e-08
7.41582e-12
1.77385e-08
-1.77296e-08
-2.02503e-12
-1.78194e-08
1.78069e-08
2.34816e-11
2.01379e-11
2.86227e-11
1.77165e-08
-1.77182e-08
5.34554e-12
-6.41733e-12
-5.55261e-12
1.95415e-08
-1.60545e-11
-1.83884e-08
-1.40222e-11
1.85409e-08
-1.88115e-11
1.83746e-08
-1.83726e-08
7.03123e-11
-1.83816e-08
2.04892e-11
1.7819e-08
-1.78194e-08
4.02755e-12
-1.94074e-08
1.94632e-08
-3.30812e-12
4.88243e-12
-1.77441e-08
-9.89869e-12
1.78157e-08
-1.78005e-08
-1.9007e-11
1.85392e-08
1.25089e-11
1.95399e-08
1.26575e-11
-1.77345e-08
-6.6412e-12
-1.83683e-08
1.70839e-10
4.91475e-11
1.95145e-08
4.65589e-11
1.8515e-08
1.78425e-08
-1.50575e-11
1.94031e-08
-1.93767e-08
-2.18649e-11
1.83572e-08
4.59028e-09
-1.89635e-08
1.77191e-08
-1.77168e-08
-2.14614e-12
-1.84017e-08
4.90589e-10
1.94073e-08
-1.94033e-08
8.3159e-12
8.57788e-12
3.24091e-11
1.30336e-09
-1.94564e-08
-2.84911e-11
1.94843e-08
2.37768e-12
-1.75788e-08
1.95067e-10
1.68286e-08
-1.73275e-08
1.43324e-11
1.73001e-08
-1.47514e-11
-3.18816e-12
-1.21775e-10
-2.78685e-11
-1.94253e-08
1.84592e-08
-1.84851e-08
4.60104e-11
-3.73056e-11
1.94238e-08
-1.94603e-08
4.29971e-11
-1.84374e-08
1.83557e-08
1.00019e-10
6.43246e-11
1.94107e-08
5.11314e-11
1.89501e-08
-5.88945e-11
1.93394e-08
9.26737e-11
-6.35289e-11
1.92017e-08
-1.74783e-08
3.15948e-10
1.76454e-08
-5.79271e-11
1.81997e-08
9.86965e-10
-1.75786e-08
2.29577e-10
-1.94657e-08
1.9439e-08
-7.77827e-09
9.09787e-09
-1.54066e-08
5.8901e-10
5.51397e-10
-9.86107e-11
-3.53103e-09
8.44275e-10
5.83076e-10
1.81775e-09
-1.68039e-09
7.01462e-09
-7.65918e-09
-6.22029e-09
6.86484e-09
1.70848e-11
1.54794e-08
7.85353e-11
1.8445e-08
-1.74663e-11
1.54366e-08
2.70996e-11
1.6454e-08
-1.64811e-08
4.02983e-11
-1.73242e-08
3.31169e-11
-1.64432e-08
-1.68346e-11
1.69062e-08
3.52234e-11
-1.58479e-08
-4.48696e-12
1.60245e-08
5.10772e-11
1.73136e-08
-1.73647e-08
5.58002e-11
1.64124e-08
-1.64682e-08
-8.30031e-13
1.69e-08
6.59291e-11
-1.85573e-08
7.61287e-11
-1.78332e-08
1.77786e-08
2.83393e-11
1.58197e-08
-1.5848e-08
6.92932e-11
-1.9547e-08
-1.77349e-10
1.52867e-08
-3.6847e-10
-1.61044e-08
1.64729e-08
-5.00297e-11
-1.6444e-08
1.64941e-08
-3.9755e-10
1.65578e-08
-1.19558e-09
1.57641e-08
-1.45685e-08
-3.64447e-10
4.3804e-10
-1.53703e-09
1.46344e-09
1.72699e-08
4.85746e-11
-1.78982e-08
4.79533e-11
1.72701e-08
-1.72918e-08
-1.77309e-08
1.77385e-08
-1.77083e-08
1.264e-11
-1.86671e-08
1.86903e-08
1.89316e-08
-1.39025e-12
-1.70335e-08
1.70398e-08
1.79449e-08
-1.79703e-08
-1.85952e-08
2.055e-11
-1.76404e-08
2.22958e-11
1.88852e-08
-1.89145e-08
1.77222e-08
3.82536e-12
1.72699e-08
-1.71313e-08
1.86918e-08
6.84736e-12
-1.69997e-08
1.1307e-12
1.74558e-08
-2.72632e-10
1.70954e-08
2.29044e-11
1.89348e-08
-1.91028e-08
1.60275e-08
-2.89925e-09
-1.43238e-08
1.22274e-09
1.87916e-09
2.31952e-09
3.52774e-09
-2.09098e-09
-3.75629e-09
-5.2198e-10
-2.23223e-09
6.53968e-10
2.10024e-09
-5.72437e-10
-8.85445e-10
7.54636e-10
4.27823e-09
-1.86687e-09
7.4705e-09
-8.61714e-10
-1.25918e-08
1.34535e-08
8.25247e-10
-9.90206e-10
-1.82319e-09
1.73925e-09
-1.00406e-08
1.17755e-08
3.87416e-09
-1.52504e-08
-2.97985e-09
1.0117e-08
8.11331e-09
4.1816e-09
2.93106e-09
-3.81478e-09
-1.69421e-09
-1.32021e-09
-2.65074e-09
2.13653e-09
1.83442e-09
-6.8995e-09
-2.64464e-09
1.0782e-09
6.47075e-10
9.40275e-09
-9.75596e-09
9.71714e-10
1.43339e-09
6.64795e-10
-2.46103e-09
-9.03226e-10
2.04405e-09
4.33038e-09
8.86552e-10
1.33324e-09
5.41041e-10
-1.04903e-09
-1.1072e-08
-1.88022e-09
1.09548e-09
1.18567e-08
8.6937e-09
-9.83387e-10
-7.71032e-09
-1.05639e-08
9.43215e-10
1.45596e-08
-6.34837e-10
9.0622e-09
-8.35402e-09
-6.15727e-09
-2.56999e-09
2.83143e-09
2.31406e-09
-5.92237e-09
-7.95423e-09
5.13451e-11
1.40751e-11
8.2911e-09
3.79143e-09
-9.70844e-09
-2.51937e-09
6.16164e-10
-1.9312e-08
1.19633e-08
6.73254e-09
-6.89072e-09
5.08772e-09
-5.74242e-09
3.07061e-09
3.07113e-09
1.6212e-09
-1.38424e-08
-1.52654e-09
-8.63125e-12
4.38478e-09
1.35895e-09
1.36443e-09
7.67163e-10
5.49098e-09
-2.07754e-08
7.18212e-10
-3.7303e-09
1.29296e-09
2.03467e-09
2.71965e-09
-2.4348e-09
-1.36462e-09
4.27662e-10
4.36179e-10
9.69144e-09
-8.79887e-10
7.7581e-10
6.14563e-10
6.72156e-10
2.9194e-09
-1.52371e-08
2.80515e-09
1.22046e-08
2.27337e-10
6.54757e-09
3.5274e-09
-9.2295e-09
3.29511e-09
1.67969e-09
-4.45544e-09
5.84687e-09
3.18238e-09
1.55785e-08
-3.25271e-09
-1.74908e-08
-4.55778e-09
7.15927e-10
5.52155e-09
5.03051e-09
8.36013e-09
-2.6666e-09
-1.0724e-08
6.50629e-09
3.33669e-09
-2.45377e-09
-7.83019e-10
-9.90173e-10
-2.14686e-10
1.67725e-08
-1.13237e-10
1.53999e-08
-2.2756e-11
1.69228e-08
-3.19574e-11
1.60565e-08
-4.19525e-11
1.69481e-08
-3.82258e-11
1.54748e-08
-1.89343e-11
1.54984e-08
-1.69187e-08
3.89396e-10
1.61609e-08
-1.17591e-09
2.93815e-09
6.02101e-09
-4.23514e-09
4.2309e-09
6.14211e-09
-4.352e-09
1.08088e-08
-1.4341e-08
2.47854e-09
7.0386e-10
-7.12005e-10
1.78659e-14
-1.41978e-09
-1.03803e-11
1.59802e-08
2.16808e-09
-3.69246e-09
-1.95743e-08
-1.85774e-08
-1.89535e-08
-1.84443e-08
1.83673e-08
-1.87534e-08
1.85681e-08
-1.78364e-08
-1.76577e-08
1.76291e-08
-1.62861e-08
1.58226e-08
-1.58744e-08
1.5943e-08
1.77382e-08
-1.77739e-08
-1.65569e-08
1.64065e-08
1.72897e-08
-1.93843e-08
1.93494e-08
1.73828e-08
-1.47789e-11
1.58449e-08
1.64917e-08
1.95862e-08
-1.95551e-08
1.85911e-08
-1.8558e-08
1.76773e-08
-1.84654e-08
1.84173e-08
-1.77661e-08
1.76897e-08
-1.94408e-08
1.93829e-08
1.64493e-08
1.851e-08
-1.85114e-08
1.86689e-08
1.58629e-08
-1.73029e-08
1.70265e-08
1.7834e-08
-1.78365e-08
-1.80093e-08
-1.737e-11
1.6484e-08
1.83797e-08
1.73401e-08
1.95366e-08
-1.95417e-08
-1.33486e-10
-6.87062e-09
-2.65342e-09
1.08945e-08
-8.3746e-09
-7.23951e-09
-1.23251e-08
1.11234e-09
-4.06863e-10
9.57164e-09
-3.86988e-11
6.43948e-10
1.89022e-08
-1.47886e-08
7.13078e-09
-1.32969e-11
-1.59678e-11
8.06008e-12
-1.49963e-11
-1.76929e-08
-1.24862e-11
-2.94195e-12
1.72569e-08
-6.00839e-12
3.12039e-12
-6.10735e-12
-5.88229e-11
-1.69577e-08
-4.50498e-11
3.11338e-12
-1.79162e-08
-5.98573e-11
2.89169e-11
-5.16451e-11
1.40673e-11
-2.3505e-11
-3.78013e-11
-1.74726e-10
6.2819e-11
5.03637e-11
1.61418e-10
7.45144e-12
-1.81515e-11
1.88897e-08
-2.72524e-11
-1.57324e-10
-2.18997e-10
-3.97413e-12
1.77722e-08
-4.33045e-12
1.87391e-08
-1.33637e-09
5.21969e-10
-8.34278e-09
-3.18735e-09
-1.20312e-09
-9.44522e-10
-1.20619e-08
-3.79114e-09
-1.43643e-08
5.40847e-09
1.16237e-08
-1.4227e-08
-7.16245e-10
1.13804e-09
-7.01895e-12
-4.60197e-12
1.72686e-08
-1.83583e-11
-1.76919e-08
-1.02458e-11
-4.70046e-12
1.89046e-08
-1.95347e-11
-1.6953e-08
-7.01428e-09
-1.70453e-08
-2.68378e-09
-3.02411e-09
2.27532e-08
3.7351e-10
1.95252e-09
-6.69835e-09
4.79335e-09
1.0587e-08
-1.17345e-08
6.55601e-09
2.17347e-09
-8.71528e-09
-1.90762e-08
1.69403e-08
9.96835e-09
-4.2525e-11
4.13633e-09
2.09515e-10
9.78337e-09
-5.38873e-09
2.01996e-08
-1.37176e-08
5.23115e-09
-5.03965e-10
-1.27228e-08
2.00107e-09
1.88303e-09
8.83869e-09
1.19083e-08
-9.55803e-09
-1.76788e-10
-2.62489e-09
1.13186e-08
6.61435e-09
-6.4697e-10