/*--------------------------------*- C++ -*----------------------------------*\
  =========                 |
  \\      /  F ield         | OpenFOAM: The Open Source CFD Toolbox
   \\    /   O peration     | Website:  https://openfoam.org
    \\  /    A nd           | Version:  8
     \\/     M anipulation  |
\*---------------------------------------------------------------------------*/
FoamFile
{
    version     2.0;
    format      ascii;
    class       surfaceScalarField;
    location    "0.8";
    object      phi;
}
// * * * * * * * * * * * * * * * * * * * * * * * * * * * * * * * * * * * * * //

dimensions      [0 3 -1 0 0 0 0];

internalField   nonuniform List<scalar> 
11231
(
2.44426e-08
-2.93474e-08
-6.55389e-09
1.14587e-08
8.47216e-09
3.56485e-10
-9.72923e-10
-7.85572e-09
-9.17746e-09
9.15977e-09
3.28587e-10
-3.10898e-10
-9.77049e-10
-8.91944e-09
1.45583e-09
8.44067e-09
-9.14323e-09
5.46858e-11
9.14227e-09
-5.37296e-11
-5.84921e-10
-8.66728e-09
8.27515e-09
-9.28908e-11
1.19381e-10
-9.20395e-09
-1.15494e-10
-8.94924e-09
8.97185e-09
-9.14607e-09
9.13414e-09
4.27982e-11
-3.08698e-11
2.93143e-12
-9.19508e-09
4.89217e-11
-5.63921e-11
-8.94278e-09
9.00211e-09
-9.12977e-09
9.12541e-09
3.41856e-11
-2.98318e-11
1.81779e-12
-9.18237e-09
3.44786e-11
-3.80557e-11
-8.95488e-09
8.99475e-09
5.68219e-12
2.39515e-11
-9.1594e-09
9.06185e-09
4.07448e-10
-9.97138e-10
-3.99887e-11
-8.95287e-09
8.99854e-09
-9.123e-09
3.76636e-11
9.10732e-09
-2.19783e-11
5.445e-09
1.26918e-08
-1.37439e-08
-4.39292e-09
-9.18011e-09
2.72223e-10
5.26326e-10
8.38157e-09
-3.24338e-12
-9.15122e-09
3.14634e-11
-4.37843e-11
-8.94385e-09
8.98439e-09
-9.11397e-09
9.11096e-09
3.80075e-11
-3.49979e-11
-3.71649e-12
3.05315e-11
-9.14078e-09
-4.11271e-11
-8.94679e-09
8.9842e-09
1.49202e-12
9.09881e-09
-9.12968e-09
2.9383e-11
5.84451e-09
-9.94082e-09
9.54131e-09
-1.30681e-08
3.33686e-09
9.69776e-09
3.34461e-11
-4.72678e-11
-8.93454e-09
8.9833e-09
9.1014e-09
3.04032e-11
-3.29956e-11
6.46046e-11
-9.48467e-11
-1.27925e-08
1.28227e-08
-2.33677e-12
9.06461e-09
-9.09057e-09
2.82951e-11
7.50844e-09
-5.36477e-09
2.97476e-09
-5.11843e-09
-4.69955e-11
-8.90696e-09
8.95162e-09
-1.31128e-08
-7.55429e-09
8.3448e-09
1.23223e-08
-1.29775e-08
1.27528e-08
2.8931e-10
-5.13423e-10
1.3746e-08
1.05315e-09
9.07836e-09
2.27666e-11
-3.65144e-11
-2.60822e-09
8.02558e-09
-1.05371e-08
5.11971e-09
-1.09701e-11
9.02928e-09
-9.04414e-09
2.58312e-11
-5.74804e-09
-1.54647e-08
1.27482e-08
8.46453e-09
-8.87595e-09
-5.47718e-11
8.91976e-09
-6.38953e-09
6.35909e-09
5.87495e-09
3.51971e-09
2.13213e-10
-3.43521e-09
-2.97717e-10
9.03574e-09
3.31905e-11
-3.96531e-11
-2.97062e-09
1.62879e-08
9.68647e-10
9.36572e-09
-1.23923e-08
-1.70981e-08
2.01247e-08
1.89514e-11
8.97679e-09
-9.00137e-09
5.62403e-12
-9.77332e-09
1.2452e-08
-1.97438e-09
-7.04261e-10
-1.68955e-08
1.16305e-08
1.38042e-09
3.88455e-09
-2.91382e-09
1.49495e-08
1.13217e-08
-2.33574e-08
-1.37144e-11
-8.8612e-09
8.89387e-09
8.99046e-09
-1.15768e-11
-2.09485e-12
-1.924e-12
8.95888e-09
2.70147e-11
-8.98397e-09
8.90168e-09
-8.86771e-09
1.04495e-11
-4.44132e-11
1.71101e-08
-1.17121e-08
-1.02626e-08
4.86466e-09
-2.58962e-11
-8.8511e-09
8.87507e-09
1.02061e-08
-1.86146e-09
-1.40927e-08
8.62724e-09
1.2064e-08
-7.05254e-10
-1.9986e-08
-4.42803e-09
3.92816e-09
-2.51466e-09
3.01453e-09
8.89421e-09
-1.49309e-11
7.78095e-14
-8.87935e-09
-4.04194e-09
1.12764e-08
-9.31449e-09
2.08006e-09
7.97481e-09
-1.74953e-09
-1.32423e-08
7.01706e-09
1.29176e-08
-1.56011e-08
-2.30302e-10
-6.13261e-12
8.9478e-09
-8.95628e-09
1.46151e-11
8.97227e-09
9.69947e-12
-2.30881e-11
3.86041e-08
-3.11399e-08
-7.46417e-09
-5.74218e-09
-8.06766e-09
1.33918e-09
1.24707e-08
7.96349e-09
1.46233e-09
-8.52447e-09
-9.01351e-10
-4.1725e-11
-8.83128e-09
8.86687e-09
-1.78892e-08
-3.44278e-10
1.69883e-08
1.24519e-09
-1.96623e-10
3.79305e-09
-1.73324e-08
1.3736e-08
3.08488e-10
9.94551e-09
-3.33232e-09
-6.92168e-09
-2.53475e-11
8.9201e-09
-8.92762e-09
3.28611e-11
3.76871e-09
1.94062e-09
1.14007e-08
9.54559e-10
9.88442e-09
-9.29103e-09
-1.54795e-09
2.4931e-11
8.94495e-09
-2.20819e-11
-5.24661e-11
-8.80459e-09
8.83171e-09
3.24208e-09
-4.32758e-09
8.29101e-09
-7.20551e-09
-3.9146e-10
-1.12253e-08
3.75574e-11
1.15792e-08
-7.74802e-09
5.79419e-09
7.9167e-09
-5.96287e-09
2.55981e-10
-1.35546e-09
-4.58871e-10
1.55835e-09
9.08726e-09
9.60323e-10
-6.24749e-09
-3.80009e-09
-4.44452e-11
8.879e-09
-8.87922e-09
4.46646e-11
8.92848e-09
1.41082e-11
-2.2483e-11
2.43089e-10
-8.78345e-09
-7.0047e-11
8.80905e-09
-7.96833e-10
-1.23773e-08
-2.93844e-10
-3.59054e-10
3.72168e-10
2.80731e-10
-1.62956e-09
7.58188e-09
1.55612e-09
-1.45678e-08
-4.35552e-09
7.21124e-09
8.89124e-09
4.50528e-11
-5.72943e-11
8.79686e-09
-8.7911e-09
4.23985e-11
-4.81582e-11
3.37218e-09
-3.06369e-09
8.39532e-11
-5.82325e-11
4.88301e-11
-2.23346e-11
2.93628e-09
-4.66946e-10
7.47618e-09
8.80995e-09
-8.80334e-09
3.02732e-11
-3.68846e-11
-5.23835e-08
6.34347e-08
-1.10511e-08
6.77888e-11
-5.43825e-11
5.16732e-11
-3.28207e-11
-8.80743e-09
-3.39386e-11
3.80298e-11
-8.7915e-09
-4.76205e-11
3.16925e-11
9.00443e-09
-9.02059e-09
2.66005e-11
1.10004e-08
-1.43932e-09
-1.1086e-08
1.52494e-09
-2.82817e-09
-1.04082e-08
-1.09346e-09
1.43299e-08
-1.13054e-09
7.03339e-09
-9.23517e-09
-8.7735e-09
-5.35148e-11
3.5514e-11
-3.71232e-11
2.52999e-11
-8.76168e-09
-8.85996e-09
-1.01656e-08
1.32834e-08
-9.01078e-09
8.98516e-13
8.99495e-09
7.1774e-09
8.83842e-10
-7.71019e-09
-3.51052e-10
1.21409e-10
1.06803e-08
1.9865e-10
9.8357e-09
6.01481e-10
-2.46237e-09
7.91515e-12
9.20944e-09
-8.34235e-09
-8.75011e-10
-1.11021e-09
1.07028e-09
1.78441e-10
-1.38513e-10
1.45767e-08
-9.48041e-09
-6.82019e-09
1.72392e-09
-4.94823e-10
9.91002e-10
6.67028e-10
-1.16321e-09
-7.05796e-10
-4.17689e-11
7.46802e-10
7.6224e-13
8.93924e-09
-2.03424e-11
-8.94003e-09
2.11319e-11
8.33583e-09
-3.64421e-10
-1.68247e-08
4.86557e-09
1.15677e-08
3.66659e-11
-1.16792e-09
7.66382e-11
1.05461e-09
-6.33645e-09
-8.79647e-12
1.46408e-11
6.3306e-09
-1.097e-08
8.6528e-09
2.68871e-09
-3.71475e-10
8.95443e-12
-1.08249e-09
-9.74066e-09
-1.94747e-09
6.30509e-09
-6.31456e-09
-9.73607e-12
1.92098e-11
-1.08192e-08
1.02959e-08
3.4596e-09
-2.13167e-09
5.35822e-09
-3.22655e-09
3.40815e-10
-1.63483e-08
-1.88167e-09
-6.24132e-10
8.36156e-11
-1.65279e-10
-1.16405e-08
7.46911e-09
3.04081e-09
1.2677e-08
-1.32669e-08
4.38293e-09
8.87185e-09
-8.84738e-09
-4.75247e-12
-1.97238e-11
-6.19837e-09
-2.50408e-11
2.35871e-11
6.19982e-09
-5.2107e-10
6.97652e-10
5.25743e-10
-7.02326e-10
-1.20345e-09
-2.43115e-09
1.93021e-09
1.70439e-09
-1.11121e-09
6.99139e-09
-8.48839e-09
-4.94034e-10
-2.37041e-10
1.06943e-10
-6.13929e-09
-2.26704e-11
1.33603e-11
6.1486e-09
-6.53321e-09
8.90361e-09
-8.75994e-09
1.06584e-08
-1.31654e-08
5.23225e-09
-2.72529e-09
8.91506e-09
6.97421e-12
1.72042e-11
-5.80547e-11
-1.70253e-09
1.40926e-10
-2.69482e-10
-3.65478e-10
-6.2378e-09
-6.42219e-10
-3.561e-09
4.37249e-09
-6.1028e-09
-1.44716e-11
6.77386e-12
6.11049e-09
3.49974e-10
9.68495e-10
-2.48191e-10
-1.34685e-09
-1.20532e-08
1.19607e-08
-1.96118e-08
2.88157e-08
5.37279e-09
-1.60155e-11
-1.82765e-12
-6.06155e-09
6.07939e-09
-9.65353e-09
8.6899e-09
3.62323e-10
6.01309e-10
-8.4946e-09
5.76889e-09
-8.35285e-10
-5.04295e-08
-3.01462e-08
8.05758e-08
6.06935e-09
-6.94858e-12
-1.06676e-11
-6.05173e-09
1.20096e-09
-4.58097e-10
-1.3938e-09
6.50936e-10
8.05801e-09
5.09752e-09
-1.16704e-08
-1.48513e-09
8.48878e-09
5.85196e-10
-4.21178e-10
1.3612e-10
5.71845e-09
-6.71709e-09
8.62522e-10
-1.8557e-11
4.19073e-11
-8.93074e-09
8.90739e-09
-1.7212e-08
-9.46407e-09
2.16884e-09
2.45072e-08
4.86923e-09
-6.86061e-09
6.22725e-09
-4.23587e-09
1.31619e-08
-3.80014e-09
3.55586e-09
-1.05979e-08
-2.44273e-09
-3.7841e-09
-6.39554e-09
-2.2844e-09
2.12397e-09
6.55597e-09
-3.08279e-09
-1.49572e-10
-8.24493e-09
1.44529e-08
1.47734e-09
-7.6853e-09
7.91014e-09
-8.18245e-09
5.14154e-09
8.83058e-10
9.59026e-10
-6.41124e-10
3.93279e-09
-1.89316e-09
3.01674e-09
-5.05637e-09
8.62164e-09
-8.62796e-09
-4.71899e-11
3.96298e-12
8.84755e-09
-1.17436e-09
1.06624e-09
-1.37631e-08
6.63685e-09
-9.27224e-09
7.64976e-10
1.04369e-08
-1.92966e-09
8.41716e-09
5.42103e-10
-8.78245e-09
-1.76815e-10
1.07394e-08
-2.82934e-09
-4.87017e-09
1.1381e-08
1.19509e-09
-7.70588e-09
1.50915e-08
1.04803e-08
-1.31299e-08
-1.24419e-08
9.51011e-09
-3.69703e-09
8.47285e-09
8.92857e-12
8.88757e-09
-8.45032e-09
8.47065e-09
-4.13989e-10
3.93661e-10
6.69368e-10
-2.01391e-08
-7.85647e-09
2.73262e-08
-5.96881e-09
1.14584e-08
-1.20228e-08
-8.70311e-09
-4.95747e-10
-2.30834e-09
7.98847e-09
-1.05503e-08
8.0235e-09
4.42852e-11
-8.04138e-09
-2.64083e-11
-2.18424e-10
4.11768e-10
-1.58714e-09
-1.26597e-10
-8.69884e-09
-2.19382e-11
7.60992e-09
-1.08964e-09
4.13814e-09
-1.55406e-08
1.28117e-08
-3.23991e-09
-3.46719e-09
9.60934e-09
2.76146e-09
-7.45184e-10
4.31228e-10
6.09422e-10
-2.95466e-10
1.87878e-09
1.47277e-10
-2.83352e-09
-1.28543e-08
5.35182e-09
-4.91452e-09
4.17167e-09
-4.60896e-09
3.83997e-11
-3.38547e-11
8.01895e-09
8.55395e-09
-1.91769e-10
-8.35411e-09
-1.05914e-10
-7.59412e-10
-7.48533e-10
3.4003e-10
9.03165e-10
-8.68296e-10
-3.3784e-10
-1.2851e-09
1.12812e-09
-1.30378e-08
-3.1207e-11
-1.60946e-09
1.46785e-08
-3.69923e-08
-1.34372e-08
3.3939e-10
-8.81662e-10
-2.02911e-10
-1.30207e-08
-1.36401e-09
4.72581e-09
1.16993e-08
-4.63673e-09
-1.17883e-08
1.49019e-08
6.13126e-10
-1.44783e-08
-1.03668e-09
-8.87507e-09
8.86274e-09
5.47321e-11
-8.26017e-10
5.91493e-10
6.65752e-10
1.43076e-12
-7.87698e-09
-1.27047e-11
7.88826e-09
1.13531e-10
8.99535e-09
-8.90434e-09
-2.04541e-10
-1.31387e-09
7.34199e-10
5.79669e-10
-7.15107e-09
-3.47064e-09
3.7611e-09
-8.92957e-09
4.52389e-10
-3.54648e-10
8.83183e-09
-5.64779e-10
7.82366e-10
-2.17587e-10
-2.42635e-11
-8.92051e-09
-4.1151e-10
7.82479e-09
-8.52449e-09
-1.21434e-09
8.76384e-09
-8.6791e-09
2.87887e-11
-2.33253e-10
8.42888e-09
4.9427e-10
8.57788e-09
-4.36525e-11
-1.65171e-09
4.40354e-10
8.56831e-09
1.35316e-11
-8.00395e-09
5.72847e-11
-5.78969e-09
7.51304e-09
6.18679e-09
-1.74428e-09
-7.97837e-09
7.58254e-09
2.14011e-09
2.33628e-09
-2.19252e-09
-1.31644e-08
-3.64576e-10
-2.00203e-10
-7.33404e-10
1.3333e-09
-6.99543e-09
8.44291e-09
-3.72553e-13
4.79063e-12
-8.44733e-09
7.87254e-09
1.55885e-11
-7.88358e-09
-4.54374e-12
7.08457e-12
7.09651e-12
-8.45126e-09
8.43708e-09
9.18848e-11
9.16175e-09
-2.58285e-10
8.62082e-10
1.5544e-08
-1.50423e-09
-1.59845e-08
1.70362e-08
-1.05175e-09
1.44617e-08
1.11732e-08
-1.05434e-08
-1.07747e-09
1.72686e-09
-6.49386e-10
-1.17343e-08
-1.95401e-10
1.19297e-08
-8.85439e-09
-1.43378e-09
2.13267e-09
-2.87837e-09
7.45697e-10
1.61765e-10
-8.27541e-09
4.08182e-09
-6.14947e-09
2.06765e-09
2.39058e-09
-1.98284e-09
-4.07738e-10
-1.28345e-08
5.02259e-11
1.27843e-08
3.47284e-09
-1.08226e-09
1.13541e-08
-1.35152e-08
-3.09478e-09
5.68373e-09
-6.28102e-09
4.10214e-10
3.66095e-09
-5.51455e-10
-3.68606e-09
4.09627e-09
-8.49218e-09
-7.65194e-09
4.4828e-12
-1.04142e-09
3.76724e-09
1.20697e-09
-4.71319e-09
4.57436e-09
-1.75434e-09
-2.95108e-10
-4.80562e-09
6.37304e-09
-1.56742e-09
5.78938e-09
8.8209e-09
3.48309e-11
4.80967e-10
8.85933e-09
2.57668e-11
-8.85482e-09
4.62674e-09
1.2566e-08
-1.24669e-08
7.3198e-09
-1.83289e-09
-7.99442e-09
-4.14943e-09
2.57749e-10
-1.30922e-08
1.65704e-09
-6.51776e-10
-1.37794e-08
9.45967e-09
9.55667e-11
-3.93491e-10
-7.09348e-10
-7.30975e-09
-4.38176e-10
9.59846e-11
8.56225e-09
-3.57465e-11
4.18146e-11
1.51224e-08
-1.45093e-08
1.17015e-11
-1.21709e-09
-2.11913e-09
6.76641e-09
9.94618e-10
-7.85195e-11
-9.01588e-09
6.0755e-09
-3.04706e-08
2.33817e-11
-9.1862e-09
4.26498e-10
-8.96926e-09
-2.21573e-10
8.76433e-09
-1.74466e-09
-7.11887e-09
1.55378e-09
-4.85094e-11
8.55021e-09
6.054e-11
8.81878e-09
-6.71445e-09
6.70673e-09
7.52076e-09
1.47436e-08
1.04329e-08
-1.46962e-08
1.32263e-09
3.39588e-09
-1.42056e-09
1.87289e-08
1.80276e-08
-1.66486e-08
-2.0108e-08
-1.03652e-09
-1.04975e-09
1.37401e-09
7.12268e-10
-9.26163e-09
1.35878e-08
1.01355e-08
-3.27295e-10
4.6735e-10
4.69368e-10
5.525e-09
-7.41829e-09
1.90236e-09
-9.06662e-12
-6.1887e-09
9.05869e-09
2.65501e-09
-7.90567e-09
8.599e-10
-3.72518e-10
-8.19279e-09
-2.97802e-10
-8.82236e-09
1.2244e-10
-1.75903e-10
8.87583e-09
-8.35308e-09
3.72213e-10
-2.11922e-10
-8.42609e-09
2.10244e-10
-1.37235e-10
-8.45651e-09
-8.50811e-11
-8.46852e-09
7.03794e-11
-5.8363e-11
-8.47124e-09
5.9366e-11
-5.66533e-11
8.7725e-09
-8.77486e-09
1.73062e-12
6.24613e-13
8.77569e-09
-8.78636e-09
2.75209e-12
7.91397e-12
8.77573e-09
-8.77701e-09
1.48965e-12
-2.166e-13
8.77566e-09
-9.64702e-13
-8.77604e-09
1.34346e-12
8.77396e-09
-8.78363e-09
7.2565e-12
2.40872e-12
8.78262e-09
-8.77596e-09
-1.9863e-12
-4.67597e-12
8.77716e-09
-8.78092e-09
2.45518e-12
1.30877e-12
8.77535e-09
-8.78451e-09
1.50421e-12
7.65206e-12
8.77289e-09
-8.77305e-09
-2.68829e-12
2.85123e-12
8.77995e-09
-8.77461e-09
-4.80422e-12
-5.39851e-13
8.78218e-09
-8.77463e-09
-6.94062e-12
-6.11622e-13
-5.03416e-12
8.78282e-09
-2.10029e-12
8.78117e-09
-2.668e-12
-2.76764e-12
8.77486e-09
-8.77675e-09
-3.4702e-13
2.23634e-12
8.78004e-09
-9.14029e-13
-3.46606e-12
8.77913e-09
-5.40229e-12
2.31588e-13
8.77449e-09
-8.77506e-09
-5.04157e-13
1.07167e-12
1.034e-12
8.77846e-09
3.12864e-12
8.77135e-09
1.26804e-14
5.79516e-12
8.77048e-09
-8.77099e-09
-2.81582e-12
3.32523e-12
-8.78466e-09
8.776e-09
1.41008e-12
7.25408e-12
-8.78517e-09
8.77695e-09
8.46605e-12
-2.46093e-13
8.77852e-09
-8.77707e-09
-4.15095e-12
2.70432e-12
8.76881e-09
-8.77067e-09
-3.60246e-12
5.46436e-12
-6.52757e-12
8.78407e-09
-2.18499e-12
8.77821e-09
-2.98735e-13
-5.02915e-12
8.77975e-09
-8.7748e-09
-6.61316e-12
1.667e-12
3.85965e-12
8.77564e-09
4.56807e-13
8.77177e-09
7.37604e-12
3.02825e-12
8.77001e-09
-4.62948e-13
5.31153e-12
-3.05119e-13
8.78284e-09
-8.77553e-09
-7.00116e-12
8.7827e-09
-8.78671e-09
2.86374e-12
1.14106e-12
8.77192e-09
-5.50635e-13
-8.77309e-09
1.71936e-12
6.92899e-12
8.7726e-09
-8.77993e-09
4.0127e-13
8.77094e-09
4.41871e-12
-8.69886e-13
8.77768e-09
-8.78385e-09
7.01288e-12
-8.46217e-13
2.98088e-12
-8.77313e-09
-4.44268e-12
8.77459e-09
-8.78714e-09
8.77868e-09
8.65396e-12
-1.9411e-13
8.76852e-09
2.60667e-14
1.92918e-12
8.77927e-09
-8.77608e-09
-2.40885e-12
-7.79119e-13
8.77287e-09
-8.77538e-09
-6.39186e-12
8.90271e-12
8.77317e-09
2.83243e-12
-7.18892e-12
-8.77905e-09
-1.18082e-12
-1.52288e-12
8.78176e-09
6.22607e-12
8.77434e-09
-8.17306e-13
8.77384e-09
-8.77809e-09
-8.01542e-12
1.22601e-11
-8.77896e-09
8.78061e-09
-3.21988e-12
1.57512e-12
8.77079e-09
-4.11986e-12
5.25483e-12
8.77877e-09
4.62166e-12
9.09607e-13
-8.7843e-09
5.68653e-12
-8.779e-09
-3.3835e-12
8.77669e-09
1.15505e-13
8.76811e-09
4.64105e-12
4.6014e-12
-8.78768e-09
-2.26414e-12
8.78534e-09
-2.96333e-12
8.78549e-09
-8.77747e-09
-5.0554e-12
-4.61878e-12
8.77184e-09
6.61789e-12
7.6793e-12
8.77862e-09
-8.78414e-09
-2.15731e-12
2.85228e-12
-2.49525e-12
-8.77769e-09
8.77733e-09
5.67645e-12
-8.78445e-09
8.77685e-09
1.92695e-12
-8.77689e-09
-5.68073e-13
2.04934e-12
8.7754e-09
8.2281e-13
-8.7752e-09
8.77829e-09
-3.91375e-12
5.91393e-13
-5.02675e-12
-8.78185e-09
8.78628e-09
-8.49169e-09
-3.59338e-11
-8.77441e-09
-5.79207e-12
-1.02285e-12
8.78122e-09
8.76962e-09
-8.77643e-09
3.50728e-12
3.30193e-12
8.77714e-09
-8.77256e-09
-1.12208e-11
6.64271e-12
-4.81445e-12
8.77112e-09
-8.77331e-09
7.0035e-12
8.77674e-09
2.62191e-12
2.59105e-12
-8.78195e-09
3.47424e-12
8.77556e-09
-8.78088e-09
1.8462e-12
8.78975e-09
-8.78626e-09
-1.91495e-11
1.56638e-11
4.29124e-12
-8.77413e-09
-3.15253e-12
8.77299e-09
-8.84502e-09
1.17803e-10
8.81723e-09
-9.00139e-11
-8.78071e-09
1.08179e-12
7.53026e-12
8.7721e-09
-8.87566e-09
-9.56987e-11
1.26333e-10
8.78738e-09
-2.72894e-11
-8.79437e-09
3.42804e-11
-8.77746e-09
4.01085e-12
3.4343e-13
8.7731e-09
8.74777e-09
-8.74202e-09
-7.22447e-11
6.64938e-11
8.80214e-09
4.17608e-11
-4.15668e-11
-8.80234e-09
8.66162e-12
-1.49278e-11
8.78341e-09
3.91321e-12
-8.78508e-09
6.5524e-12
8.77461e-09
2.47953e-11
-1.306e-11
8.77801e-09
3.88302e-12
-2.08639e-12
-8.7866e-09
8.78481e-09
6.55777e-12
8.77068e-09
-8.78168e-09
4.43938e-12
5.03097e-12
-8.77932e-09
-9.36284e-13
8.77523e-09
3.49778e-12
-8.78371e-09
-3.70168e-12
8.78391e-09
2.4989e-11
-2.13046e-11
8.7837e-09
-8.81572e-09
8.80411e-09
-5.65454e-11
6.81605e-11
8.96007e-13
8.22112e-12
-8.77933e-09
8.77021e-09
-8.64821e-09
6.77615e-12
1.30955e-12
8.64012e-09
-8.64549e-09
2.22099e-12
-4.93898e-12
4.37737e-11
-3.60629e-11
8.79443e-09
-8.65892e-09
6.26229e-12
7.16079e-12
-8.65214e-09
3.38239e-12
-1.01548e-11
-8.77867e-09
-1.14865e-12
1.10386e-11
8.76878e-09
5.12049e-12
-8.65868e-09
1.41191e-12
1.83557e-12
-1.90081e-12
8.74653e-09
-8.74646e-09
8.65471e-09
5.34399e-13
-8.66783e-09
1.25878e-11
-8.7758e-09
2.51335e-12
1.93035e-12
8.77135e-09
-8.48691e-09
4.43436e-11
-4.9125e-11
8.6547e-09
-1.16889e-12
-8.65872e-09
5.19041e-12
8.65556e-09
-3.69406e-12
-8.65899e-09
7.12723e-12
8.65458e-09
-8.66629e-09
4.16032e-12
7.55693e-12
-8.89289e-09
1.60036e-10
-1.42798e-10
8.77214e-09
1.27445e-11
-8.77622e-09
-8.78254e-09
-1.34431e-11
1.79797e-11
8.778e-09
2.16051e-11
-8.77935e-09
8.64805e-09
-8.65966e-09
-3.1347e-13
1.19246e-11
1.38318e-12
1.62327e-12
-8.78333e-09
8.78033e-09
8.78951e-09
3.14531e-11
-8.79597e-09
-2.22581e-11
2.86226e-11
8.78314e-09
8.79904e-09
-8.79695e-09
4.1687e-11
-8.64879e-09
8.63837e-09
9.53171e-12
8.88065e-13
-8.63541e-09
-8.16575e-12
-5.21399e-12
1.23926e-12
7.54924e-12
-8.78242e-09
8.77363e-09
-8.64921e-09
5.87478e-13
1.3219e-11
-3.47462e-11
4.17962e-11
8.79199e-09
-8.63847e-09
5.07791e-12
-1.58255e-11
-8.65446e-09
8.18921e-12
7.80526e-12
-8.64419e-09
-1.87358e-11
8.46886e-12
-8.65951e-09
1.55875e-11
-2.71909e-13
-8.8025e-09
8.80215e-09
-5.6379e-11
5.6738e-11
-7.93946e-12
3.17341e-12
8.7769e-09
-8.64493e-09
2.88393e-12
-1.74682e-11
2.75539e-12
-8.66031e-09
1.26293e-11
6.02912e-11
-8.82866e-09
-4.49094e-11
8.81328e-09
8.65664e-09
-6.90863e-12
-8.65909e-09
9.35394e-12
-8.81555e-09
-6.26281e-11
6.2455e-11
8.64977e-09
-1.08599e-11
-8.6509e-09
1.19909e-11
-8.64469e-09
8.64036e-09
5.97151e-13
3.73145e-12
-8.64208e-09
7.47597e-12
-1.00914e-11
-8.65571e-09
9.86434e-12
3.77239e-12
-8.65014e-09
-8.37014e-12
2.79963e-12
-8.66543e-09
4.68775e-12
1.05959e-11
8.66429e-09
-1.37686e-11
4.19093e-12
-7.92955e-12
-3.68965e-12
-8.71184e-09
8.72346e-09
-8.48704e-09
3.92145e-11
-3.90828e-11
-3.67059e-12
-7.82335e-13
-3.35936e-12
5.32802e-12
-1.34737e-12
-7.04574e-12
5.09283e-13
3.2811e-12
-1.66181e-12
3.81802e-13
5.33744e-12
5.79254e-11
-9.00533e-09
2.75699e-11
8.91983e-09
8.66339e-09
-1.0635e-11
1.94108e-12
4.87397e-12
7.50349e-12
-8.72205e-09
8.70967e-09
8.64477e-09
-8.66575e-09
8.21478e-12
1.27696e-11
-8.79656e-12
8.66395e-09
4.04827e-13
6.18943e-11
-8.71415e-09
-3.24031e-12
-2.06557e-12
8.71945e-09
-7.75077e-12
8.66358e-09
-1.25061e-12
-1.65676e-12
-8.71404e-09
-4.15074e-12
8.71984e-09
8.64575e-09
-8.66761e-09
7.69809e-12
1.4167e-11
8.66096e-09
-5.642e-12
-7.26305e-12
3.52008e-12
-1.04056e-12
-8.72055e-09
8.71807e-09
8.65421e-09
-4.44467e-12
-1.13933e-11
-1.14158e-12
3.16158e-12
-8.71637e-09
8.71435e-09
8.64788e-09
-8.66916e-09
4.22352e-12
1.70574e-11
1.53969e-10
-8.92621e-09
8.85754e-09
-8.52929e-11
8.65637e-09
-8.65855e-09
-7.54849e-12
9.73423e-12
-5.2946e-13
8.65699e-09
1.80268e-13
-2.02354e-10
2.98965e-10
-8.9895e-09
-5.27466e-12
-8.72226e-09
1.96672e-12
8.72557e-09
8.65061e-09
-1.13843e-11
-8.65228e-09
1.30462e-11
8.65269e-09
3.40061e-13
-3.2616e-12
8.92738e-13
5.7482e-13
-8.71953e-09
8.71807e-09
7.74149e-13
-5.83466e-12
8.64542e-09
6.28988e-13
-8.71466e-09
1.24232e-12
8.71278e-09
-8.65611e-09
8.64251e-09
1.46397e-11
-1.04297e-12
8.944e-09
-2.31108e-10
-9.11652e-09
4.0363e-10
-8.64511e-09
-1.68843e-11
5.88531e-12
8.66247e-09
-4.08495e-12
-1.36187e-11
-8.65906e-09
2.0127e-12
1.19369e-11
5.28868e-12
1.23405e-12
-8.71905e-09
8.71253e-09
-8.65305e-09
-6.31374e-12
3.0632e-13
5.01409e-12
8.76932e-09
8.65317e-09
2.48985e-12
-9.91418e-12
7.41818e-12
-2.83825e-12
-8.72195e-09
8.71737e-09
2.44988e-12
-8.66916e-09
1.36602e-11
8.66416e-09
-7.09437e-12
-9.18454e-12
5.28292e-12
-8.72317e-09
-8.01084e-13
8.71869e-09
8.66592e-09
-6.38465e-12
-3.17172e-12
8.89561e-09
9.42308e-12
3.1103e-12
-8.7235e-09
8.71097e-09
8.64977e-09
4.80242e-12
-8.67209e-09
1.75246e-11
8.65345e-09
3.84878e-13
-3.22092e-12
3.12599e-13
1.0119e-12
-8.72054e-09
8.71921e-09
-4.45896e-12
-9.31087e-14
8.64707e-09
-8.71658e-09
3.33926e-12
-7.12732e-13
8.71396e-09
8.65352e-09
4.87256e-12
-8.66817e-09
9.77575e-12
-8.4922e-09
-3.2902e-11
9.0994e-09
1.10211e-10
2.97588e-10
-9.5072e-09
-9.03394e-12
-8.05316e-12
8.66685e-09
-8.72117e-09
5.31855e-12
9.49621e-13
8.71491e-09
8.73305e-09
9.55268e-12
-8.72987e-09
-1.27371e-11
-9.16786e-09
2.72746e-10
-9.34031e-13
-5.99189e-12
8.66045e-09
2.87394e-12
-8.72627e-09
2.55259e-12
8.72084e-09
-8.49945e-09
4.55448e-11
-3.82887e-11
2.87959e-11
-8.96103e-09
8.95336e-09
-8.92327e-09
8.9083e-09
4.37679e-11
-2.70005e-12
-4.15564e-12
8.67465e-09
-8.6678e-09
4.00408e-12
-8.72369e-09
-7.13843e-12
8.72682e-09
9.20475e-12
8.73768e-09
-1.38308e-11
8.72879e-09
1.95184e-11
-8.74024e-09
-8.06564e-12
4.30765e-11
-8.93878e-09
-8.94222e-09
3.24659e-12
-1.04985e-11
-8.67297e-09
8.68023e-09
8.89581e-09
-3.98278e-11
5.23202e-11
-8.82366e-09
-7.22174e-11
7.22288e-11
8.82365e-09
-8.49347e-09
3.10177e-11
-3.70031e-11
-5.70607e-11
6.8107e-11
8.83472e-09
-8.84577e-09
9.0657e-12
8.74303e-09
-2.33093e-11
8.77839e-09
-8.76917e-09
-1.10329e-11
1.81416e-12
8.88065e-09
-8.78335e-09
8.77357e-09
1.72413e-12
8.05272e-12
-8.77397e-09
-1.03313e-11
2.81194e-12
8.78149e-09
-8.77447e-09
-4.18056e-12
4.67691e-12
-8.683e-09
-6.86619e-12
1.2155e-11
8.67771e-09
8.77345e-09
-8.78118e-09
-7.14637e-13
8.44883e-12
8.27051e-11
-8.83826e-09
5.30422e-11
8.855e-09
-2.73932e-11
-8.85695e-09
8.84396e-09
-8.77628e-09
8.77678e-09
8.76291e-13
-1.37513e-12
-8.77919e-09
-4.77348e-12
7.68243e-12
-8.7789e-09
8.77559e-09
6.58811e-12
-3.27562e-12
8.49491e-09
-8.50253e-09
2.04397e-11
-1.28161e-11
9.26303e-10
-9.74523e-09
8.77487e-09
1.49907e-12
2.32942e-12
-8.7787e-09
-8.77012e-09
8.76853e-09
4.34942e-12
-2.75845e-12
-8.77969e-09
2.9303e-12
6.63866e-12
-8.77775e-09
8.78218e-09
-6.25136e-12
1.82464e-12
-8.70301e-09
8.6865e-09
-1.46953e-11
3.12128e-11
8.83637e-09
-4.39918e-11
-8.77497e-09
-1.289e-12
8.7762e-09
5.92245e-14
5.73641e-12
8.77173e-09
9.20225e-13
-8.78014e-09
-8.55947e-13
7.91522e-12
8.77308e-09
2.77927e-12
8.77448e-09
-1.39257e-12
-8.77587e-09
-8.77464e-09
-3.82519e-12
4.94327e-12
8.77353e-09
-8.70974e-09
1.64409e-11
-9.71321e-12
-8.78244e-09
8.78005e-09
2.66641e-12
-2.76248e-13
-2.23243e-12
-8.7798e-09
8.78392e-09
-1.89439e-12
-8.7734e-09
-5.25273e-12
-4.69513e-12
8.77456e-09
1.92914e-12
-8.77558e-09
-9.08707e-13
8.88858e-09
-8.5833e-12
4.69525e-11
-8.77429e-09
8.77776e-09
-8.6962e-12
5.23106e-12
-8.73088e-09
3.72141e-12
1.74218e-11
-8.78013e-09
8.77344e-09
6.12717e-12
5.59779e-13
-8.77991e-09
-1.73879e-12
1.38979e-12
8.78026e-09
-4.88374e-11
1.32762e-12
4.52591e-13
-8.77408e-09
8.7723e-09
-3.37632e-12
8.77815e-09
-8.77402e-09
-4.23302e-12
-1.6544e-12
-6.08686e-13
8.78164e-09
-8.78136e-09
3.36413e-13
-3.66129e-12
-7.77607e-13
-8.7757e-09
-1.87894e-11
2.60345e-11
-8.69024e-09
2.12037e-13
-8.77687e-09
-1.09838e-12
-8.77994e-09
8.77772e-09
-3.84226e-13
2.60778e-12
-8.51097e-09
-2.24851e-11
-8.77482e-09
3.06308e-12
-8.18691e-12
1.11335e-12
-8.78058e-09
5.66762e-13
-3.86708e-12
8.78071e-09
2.20432e-12
-8.77905e-09
2.76477e-11
-1.47451e-11
-8.74379e-09
-8.77854e-09
3.77457e-12
4.78671e-13
-8.77386e-09
-2.34761e-12
-3.48435e-12
-2.46706e-12
-8.77236e-09
-1.27921e-12
8.7761e-09
8.77149e-09
-8.77253e-09
-3.97652e-13
1.44058e-12
-2.17323e-11
8.83473e-09
-8.86184e-09
3.3333e-12
8.77922e-09
-9.61246e-12
-8.77294e-09
-3.62662e-12
8.78058e-09
-8.76855e-09
-8.40684e-12
4.68377e-12
8.77263e-09
-8.78007e-09
2.75759e-12
2.34832e-12
-8.77414e-09
-3.16934e-12
-5.80211e-12
5.61217e-13
-8.77395e-09
-8.77341e-09
-1.03693e-12
8.77507e-09
-6.22683e-13
-2.75649e-09
2.7514e-09
5.08754e-12
-2.63334e-13
-8.77887e-09
-6.64315e-14
8.7792e-09
8.53102e-09
-8.51993e-09
1.65623e-11
-8.77174e-09
8.77434e-09
-1.43251e-12
-1.17405e-12
8.77738e-09
4.97287e-12
-7.7756e-12
-8.77457e-09
-8.77407e-09
-7.49856e-12
1.4376e-12
-8.78024e-09
-4.6844e-12
2.485e-12
8.79766e-09
-8.83413e-09
-2.7635e-09
2.76024e-09
3.25805e-12
-8.96096e-13
1.42805e-12
8.77722e-09
8.82169e-09
-3.18727e-11
-8.76522e-09
8.77604e-09
-7.54179e-12
-3.27624e-12
-4.49058e-12
8.77536e-09
-8.77446e-09
3.58472e-12
-3.35289e-11
8.80979e-09
4.54376e-11
-2.23535e-12
-8.77569e-09
8.77892e-09
-9.93964e-13
-8.50937e-09
4.18347e-11
-4.34361e-11
-8.76531e-09
-1.50887e-12
1.6e-12
-8.77497e-09
8.77441e-09
2.32143e-12
-1.76933e-12
8.49425e-09
-1.81329e-11
-2.76365e-09
2.7652e-09
-1.5562e-12
8.77443e-09
-8.76914e-09
-5.42982e-12
1.49581e-13
-1.33265e-12
8.7745e-09
-8.77925e-09
6.08439e-12
8.9925e-09
-8.97987e-09
-1.34279e-11
7.91044e-13
-8.77278e-09
8.77345e-09
6.22796e-12
-6.89229e-12
4.10806e-12
-8.77351e-09
4.0945e-12
8.91416e-09
-1.74408e-12
-8.91694e-09
4.5239e-12
-2.4331e-12
8.77404e-09
-8.77699e-09
5.39024e-12
4.12311e-12
-8.77729e-09
1.4265e-12
-6.46098e-09
6.45756e-09
1.98343e-12
1.43532e-12
1.24862e-11
-2.74525e-09
2.73277e-09
6.41986e-09
3.21977e-11
-6.43957e-09
-6.45757e-09
-1.09642e-12
-2.30776e-12
8.92202e-09
-8.9249e-09
-2.98993e-12
5.87103e-12
1.67797e-12
-2.75817e-09
8.76612e-09
-8.78321e-09
7.06925e-11
8.78526e-09
-5.5643e-11
-8.80031e-09
-6.46352e-09
1.16455e-11
6.45356e-09
-8.77036e-09
3.17312e-13
-3.37034e-12
-8.7694e-09
8.78045e-09
-7.50267e-12
-3.53821e-12
1.80968e-13
-8.77418e-09
-4.54084e-12
8.77283e-09
1.88615e-12
8.62707e-13
-8.77558e-09
8.79665e-09
-2.84276e-11
-8.74351e-09
2.35994e-11
8.74594e-09
5.31628e-12
-1.83169e-12
8.77405e-09
-8.77754e-09
-8.76862e-09
8.77093e-09
6.45719e-13
-2.95233e-12
-8.77742e-09
-2.60573e-12
2.03214e-12
8.77799e-09
8.77906e-09
-8.7799e-09
-5.80025e-11
5.88402e-11
-3.8011e-12
-2.7597e-09
8.91278e-09
-8.91762e-09
-1.57767e-11
2.06143e-11
2.38098e-12
8.76932e-09
2.69547e-12
8.77189e-09
-8.76638e-09
-8.20872e-12
3.12813e-12
6.45676e-09
-6.46368e-09
8.54075e-14
-2.76373e-09
7.04611e-12
8.77091e-09
-8.77298e-09
-4.98354e-12
-2.76819e-09
2.76541e-09
2.78867e-12
6.80408e-12
8.77483e-09
-8.77459e-09
-8.51068e-09
3.54698e-11
-3.41657e-11
-5.5666e-12
6.46321e-09
8.77677e-09
-1.18595e-12
-8.77045e-09
-5.1344e-12
2.45376e-12
8.88915e-09
-8.89107e-09
-5.3194e-13
-1.41624e-12
-8.90066e-09
-2.1329e-12
8.90421e-09
-8.77856e-09
8.77269e-09
3.17045e-13
5.54534e-12
8.79412e-09
-3.35342e-11
8.96126e-09
-8.93716e-09
-2.16452e-11
8.9727e-09
-8.95098e-09
-2.31379e-11
3.8541e-12
-8.76561e-09
-2.8779e-12
8.76463e-09
8.77328e-09
-8.77128e-09
-3.48409e-11
3.28416e-11
-2.00758e-11
-4.8161e-13
9.01306e-09
-1.21011e-11
8.94305e-09
-1.67868e-11
-8.91345e-09
8.89329e-09
8.54761e-14
8.90703e-09
-8.90745e-09
-1.1534e-11
1.1953e-11
3.00877e-11
-8.75388e-09
-1.97198e-11
-6.46599e-09
6.46268e-09
1.05372e-12
2.25304e-12
8.52587e-09
8.86956e-12
8.86752e-09
1.41212e-12
-8.88104e-09
-3.24635e-12
-8.77663e-09
8.77538e-09
8.77197e-09
8.6518e-12
2.21346e-12
-8.77773e-09
6.11655e-12
-8.77797e-09
8.76916e-09
2.59273e-11
-1.71229e-11
-1.97043e-11
8.93797e-09
3.75655e-12
6.2157e-12
8.86716e-09
-8.89308e-09
8.78952e-09
3.46846e-11
9.97123e-14
-2.76207e-09
2.76197e-09
-1.85068e-11
-8.7689e-09
8.76632e-09
3.22548e-11
-2.52902e-11
6.45731e-09
1.81974e-12
-6.45903e-09
2.15327e-11
-8.51533e-09
-8.74181e-12
-6.46252e-09
-2.78865e-12
-6.83466e-13
-2.41421e-12
-8.76524e-09
-1.09072e-11
-1.65327e-11
8.77797e-09
1.34395e-11
-8.77488e-09
8.68952e-09
-8.76723e-09
-1.86998e-12
8.77338e-09
-4.2877e-12
-8.77281e-09
8.77047e-09
2.49291e-12
-1.53783e-13
-5.43022e-12
-2.76276e-09
8.09153e-09
-2.92499e-12
-5.50733e-13
-8.08805e-09
-2.8763e-11
1.71118e-11
9.57966e-12
8.86978e-09
7.64168e-12
-8.887e-09
-8.77268e-09
8.77024e-09
-1.46747e-12
3.90308e-12
8.93732e-09
-1.49512e-11
7.46201e-13
6.45651e-09
8.78319e-09
-4.07397e-12
-8.77828e-09
-8.3119e-13
-6.46227e-09
2.30852e-12
-2.55386e-12
8.7767e-09
5.88115e-12
-1.34235e-11
8.77055e-09
-8.77662e-09
-4.23e-11
4.83729e-11
8.51282e-09
3.34081e-12
8.77899e-09
-8.78542e-09
7.42341e-13
5.68857e-12
8.77498e-09
-1.33287e-11
1.50493e-11
-8.77287e-09
5.87072e-12
8.76585e-09
1.15122e-12
-3.90708e-13
8.77734e-09
-8.76673e-09
8.76511e-09
-1.77299e-11
1.9349e-11
8.78583e-09
8.77275e-09
-8.76754e-09
-1.52681e-11
1.0058e-11
-1.7205e-11
-6.4678e-09
1.6652e-12
3.85946e-12
8.77729e-09
-8.77455e-09
-1.64809e-12
-1.09072e-12
8.88743e-09
-8.89152e-09
-1.02699e-11
1.43582e-11
8.77383e-09
-1.26155e-11
1.37712e-11
2.31427e-12
-8.78145e-09
8.77795e-09
-1.51478e-12
-5.64311e-12
8.7722e-09
-8.76504e-09
8.77296e-09
6.13557e-12
-1.79943e-12
8.77269e-09
4.44738e-12
-8.77812e-09
9.85997e-13
2.17157e-13
-8.78244e-09
8.2265e-13
8.7814e-09
-8.7768e-09
-2.11917e-11
3.12625e-11
-7.01837e-14
8.77468e-09
8.76941e-09
-2.74373e-12
7.16398e-12
8.7817e-09
-1.19607e-11
5.50148e-12
-8.77524e-09
1.93061e-12
-8.77219e-09
8.77405e-09
-3.79145e-12
-2.77307e-12
8.92202e-09
-1.22235e-11
-7.58286e-12
8.04765e-12
-6.46053e-09
-2.22776e-12
-5.04253e-12
8.78341e-09
-3.89514e-12
-6.56043e-12
-3.20645e-12
-8.77901e-09
8.7835e-09
-1.2826e-12
8.78239e-09
-1.78592e-11
8.77431e-09
-8.76711e-09
-2.00656e-11
1.2861e-11
8.51095e-12
2.97441e-12
-8.78494e-09
8.77346e-09
8.77972e-09
-8.77734e-09
-5.58736e-12
-8.76937e-09
-4.48309e-13
-3.04912e-12
8.78783e-09
-4.42738e-12
4.11907e-12
8.77351e-09
-4.94652e-12
6.97661e-12
8.86492e-09
-8.87467e-09
-1.06255e-12
-8.77368e-09
2.0683e-12
7.01129e-12
-1.73819e-12
-8.77808e-09
-1.74374e-12
-8.77014e-09
-2.66809e-12
3.83956e-11
-3.91285e-11
4.34156e-12
-6.22313e-14
-8.7715e-09
-8.51933e-09
-3.51253e-11
1.71955e-11
-8.76962e-09
8.77382e-09
-2.14029e-11
8.78608e-09
1.41521e-12
8.77996e-09
-2.81522e-12
-8.77303e-09
8.77553e-09
3.50314e-12
9.33603e-13
-3.4837e-11
-8.77706e-09
3.50974e-11
8.87261e-09
-3.17043e-11
-8.85743e-09
1.65166e-11
-6.45486e-09
-5.51647e-12
-1.49025e-13
-2.34663e-12
-8.77269e-09
2.05587e-12
8.77378e-09
-8.77403e-09
-1.74191e-12
1.994e-12
2.48234e-11
8.77708e-09
8.77882e-09
-9.85571e-12
4.44234e-13
7.16288e-12
8.85992e-09
7.54617e-12
-8.87463e-09
4.42106e-12
-8.78138e-09