/*--------------------------------*- C++ -*----------------------------------*\
  =========                 |
  \\      /  F ield         | OpenFOAM: The Open Source CFD Toolbox
   \\    /   O peration     | Website:  https://openfoam.org
    \\  /    A nd           | Version:  8
     \\/     M anipulation  |
\*---------------------------------------------------------------------------*/
FoamFile
{
    version     2.0;
    format      ascii;
    class       surfaceScalarField;
    location    "0.8";
    object      phi;
}
// * * * * * * * * * * * * * * * * * * * * * * * * * * * * * * * * * * * * * //

dimensions      [0 3 -1 0 0 0 0];

internalField   nonuniform List<scalar> 
10659
(
-8.40577e-09
8.68106e-09
2.08122e-10
-4.83403e-10
4.56256e-10
-6.53632e-10
8.34008e-09
-8.14271e-09
8.21855e-09
-7.57306e-09
5.71064e-10
-1.21656e-09
-8.16182e-09
-4.11576e-10
1.6762e-10
-1.17725e-08
2.95229e-09
9.52772e-09
-7.07546e-10
-3.11562e-10
5.72139e-09
-6.30328e-09
8.93451e-10
1.13941e-10
4.93181e-11
-8.33392e-11
-7.99204e-11
-1.52996e-09
-2.50225e-09
2.43405e-09
1.59816e-09
8.70025e-09
-8.62237e-09
8.64107e-11
-1.64291e-10
-2.45862e-09
2.10165e-09
-4.0764e-09
4.43337e-09
-8.98807e-09
-1.53878e-10
1.37047e-10
9.0049e-09
-3.50792e-10
7.15288e-09
-6.80209e-09
-8.37474e-09
8.6775e-09
2.28506e-10
-5.3127e-10
1.02078e-10
7.87091e-09
-2.53487e-10
-7.7195e-09
-8.67522e-11
3.18736e-10
8.46827e-09
-1.92152e-09
-3.81043e-09
3.27334e-09
-2.55692e-10
2.62848e-10
-7.15585e-12
-2.30197e-09
-5.85933e-09
4.33335e-09
3.82795e-09
-7.05435e-09
-3.33197e-10
8.63936e-10
6.52361e-09
-8.14762e-09
-5.75469e-10
1.00716e-10
-6.61494e-09
7.05786e-09
-4.42926e-10
9.55375e-11
-1.24107e-10
1.42511e-10
5.18051e-09
2.96168e-09
-7.45154e-09
-6.90645e-10
-1.60155e-10
8.22468e-09
-7.69813e-09
-5.26552e-10
-9.41484e-09
-2.68163e-10
7.10693e-10
8.97231e-09
-8.17968e-09
-3.70691e-10
1.7563e-10
8.95196e-09
1.07483e-10
-3.78383e-10
5.51485e-09
-2.62991e-09
-6.35329e-09
3.46836e-09
8.59966e-09
-8.42664e-09
2.22392e-11
-1.95258e-10
-9.15071e-09
9.48433e-09
4.73792e-10
-8.0741e-10
2.38925e-10
1.20537e-10
-2.26004e-10
-1.33457e-10
-7.5357e-09
6.37324e-09
2.5145e-09
-1.35204e-09
-1.0348e-08
2.26035e-09
8.45805e-09
-3.70404e-10
-9.43646e-09
-1.55208e-10
5.00107e-10
9.09156e-09
6.63996e-09
6.31812e-10
-7.05505e-09
-2.16713e-10
6.18033e-09
-5.57745e-09
-1.18343e-10
-4.84535e-10
7.27313e-09
-5.08049e-10
2.14078e-10
-6.97916e-09
-9.28228e-09
2.44094e-10
-5.03847e-11
9.08857e-09
-1.86393e-11
7.56335e-09
9.78325e-10
-8.52304e-09
-7.81387e-09
1.15361e-09
8.3414e-09
-1.68113e-09
4.29188e-09
-1.05244e-09
2.94089e-09
8.80685e-09
2.42001e-10
-8.30296e-10
5.38615e-09
3.03206e-09
-3.7408e-09
-4.67741e-09
-2.73426e-09
2.66213e-09
9.34906e-09
-9.27693e-09
-2.85794e-10
-7.33818e-09
1.56015e-10
7.46796e-09
-6.20113e-11
-1.36144e-11
8.67529e-09
-8.69127e-09
2.78475e-10
-8.69482e-10
-1.61081e-09
-8.25834e-09
1.63992e-09
8.22922e-09
-7.56051e-09
5.58254e-09
-5.84608e-09
7.82404e-09
1.06678e-09
4.96664e-09
-5.26375e-09
-7.69661e-10
-8.37501e-09
-7.54077e-11
2.3776e-11
-7.301e-10
-8.82559e-09
1.19224e-10
-8.91024e-09
-2.58557e-11
-6.15165e-11
8.99761e-09
9.08834e-09
1.49431e-10
-5.6027e-10
8.62158e-10
-8.74945e-09
-3.94758e-10
8.28205e-09
-1.21574e-08
1.92085e-10
-6.60881e-10
1.26262e-08
-2.66912e-09
6.29042e-09
-1.05641e-08
6.94279e-09
8.30688e-09
-9.3654e-10
-7.68511e-09
3.14764e-10
-8.58905e-09
8.67672e-09
-2.9777e-09
2.89003e-09
-2.19043e-09
4.71125e-09
2.99402e-09
9.75683e-09
-2.01608e-09
7.6043e-10
-8.50117e-09
-8.32742e-09
-1.58953e-09
6.76001e-09
3.15694e-09
1.2731e-09
-2.36973e-09
2.24475e-09
-1.14811e-09
8.14596e-13
7.36313e-11
1.9917e-10
-2.73616e-10
-6.72837e-10
1.39447e-09
-5.61781e-09
4.89618e-09
-5.56717e-10
2.35532e-09
-3.72012e-09
-8.34162e-09
-1.22226e-09
9.56387e-09
-5.0384e-10
7.90434e-09
1.6757e-10
-7.56807e-09
-5.18543e-10
9.31052e-09
3.36111e-10
-9.12808e-09
8.81164e-09
6.51732e-11
-8.63272e-09
-8.16661e-09
-4.61046e-10
1.4194e-09
7.20826e-09
2.75457e-11
3.48891e-09
-1.3574e-10
-3.38072e-09
-2.78168e-09
-7.53122e-10
3.48461e-09
5.02006e-11
4.48905e-09
-4.43746e-09
1.01519e-09
-8.02635e-09
-1.88593e-10
7.73458e-10
7.44148e-09
3.62657e-09
3.66728e-09
-1.8178e-09
-5.47605e-09
-6.6718e-10
-9.07076e-09
3.04029e-10
9.43391e-09
7.27183e-09
-1.48998e-09
1.11969e-09
-6.90154e-09
8.76381e-09
-1.60061e-09
-7.80598e-09
6.42776e-10
2.66868e-09
-1.14756e-09
2.77075e-09
6.77371e-09
-4.58971e-09
4.09676e-09
-6.28077e-09
-4.35989e-09
5.25285e-09
-4.93832e-09
4.04536e-09
-7.26555e-09
3.98705e-10
-1.87503e-10
1.06023e-08
5.73414e-10
-3.14415e-09
-8.03158e-09
-4.92365e-10
8.23779e-09
2.69361e-10
-8.01479e-09
-1.11722e-09
4.58787e-09
-3.47065e-09
2.59902e-09
-8.01093e-10
8.85315e-10
-2.68325e-09
1.05814e-08
-3.63361e-09
-7.90135e-09
9.53555e-10
-5.08807e-09
-1.24305e-10
-3.65074e-10
-4.85321e-09
4.48914e-09
2.08075e-09
-1.71668e-09
5.50761e-10
-1.74522e-09
7.78007e-09
-6.58561e-09
-7.94415e-09
1.46016e-09
-6.30218e-10
7.11421e-09
-8.40331e-09
-1.50129e-11
4.48133e-10
7.97019e-09
2.58001e-09
9.23681e-09
-5.448e-09
-6.36882e-09
-3.96698e-09
3.97464e-09
1.91284e-09
-1.9205e-09
-8.56792e-09
-7.14423e-10
1.75095e-09
7.53139e-09
5.41902e-09
4.18312e-09
-5.97074e-09
-3.6314e-09
-4.4614e-09
1.11483e-08
2.93831e-09
-9.62518e-09
6.5499e-09
-2.36973e-09
-7.5185e-09
3.33833e-09
-7.2107e-09
7.36132e-09
-1.50628e-10
7.4827e-09
-3.21943e-10
-7.34831e-11
-7.08728e-09
2.0079e-09
-5.4446e-09
4.86721e-09
-1.43051e-09
-3.88594e-09
-2.14379e-09
2.06275e-09
-8.90859e-09
3.03807e-10
-1.7432e-09
2.35872e-10
3.25364e-10
7.98371e-09
-8.54494e-09
-4.93769e-09
-6.79429e-09
3.50565e-09
8.22633e-09
-2.0061e-10
-5.14811e-09
1.09913e-08
-5.64257e-09
-2.71389e-09
-5.9585e-10
7.96354e-10
2.51339e-09
-1.51491e-10
-2.98874e-10
2.34608e-10
2.15758e-10
3.36478e-09
-2.96481e-09
2.76308e-09
-3.16304e-09
3.12358e-09
1.35574e-10
-3.02776e-09
-2.31397e-10
7.65195e-09
-8.342e-09
1.21249e-09
-5.22438e-10
7.56189e-09
3.52183e-11
-2.26923e-10
-7.37019e-09
-8.74687e-09
-6.36541e-10
1.76651e-09
7.6169e-09
-1.19296e-09
7.29372e-09
-7.59236e-09
1.4916e-09
1.10545e-08
-1.69524e-11
-6.69912e-09
-4.3384e-09
7.88454e-09
-8.2161e-11
-1.50431e-10
-1.23655e-10
4.55082e-10
8.408e-09
-8.73943e-09
-3.17511e-09
3.10606e-09
-8.52e-09
-5.48907e-10
-8.61248e-09
2.48728e-10
8.91266e-09
6.39106e-09
-7.59744e-09
-7.1169e-09
8.32328e-09
-6.09115e-09
2.5358e-09
6.52318e-09
-2.96784e-09
3.8717e-10
-3.80896e-10
4.89152e-09
-1.43562e-10
1.19998e-09
-5.94794e-09
4.34068e-09
2.7293e-10
-3.87949e-09
-7.34116e-10
-7.49556e-09
7.59764e-09
2.1162e-10
-9.46555e-09
-9.55261e-10
1.02092e-08
3.68121e-09
2.3904e-09
-2.70683e-09
8.30243e-09
-8.0559e-09
-4.23339e-10
1.76811e-10
-6.72408e-10
-8.78428e-09
8.93815e-09
-1.55713e-09
-2.41261e-10
6.73214e-09
-4.93375e-09
-6.73185e-09
6.17116e-09
5.65315e-10
-4.62134e-12
-3.88053e-10
-7.23438e-09
9.64816e-11
7.52595e-09
-6.27754e-10
1.99359e-10
-8.26288e-09
-2.76722e-09
2.96738e-09
-2.00164e-10
8.68129e-09
-1.9134e-11
2.41321e-10
-8.90348e-09
-3.22182e-09
3.20434e-09
4.50248e-11
-1.81303e-09
-3.4236e-09
3.1681e-09
2.06852e-09
-8.01768e-09
-8.76796e-11
7.64844e-09
4.56913e-10
-2.42064e-09
-3.99879e-09
3.45462e-09
-7.92078e-10
8.65069e-10
-7.29913e-11
-8.63378e-09
1.24308e-09
-7.75918e-10
6.52311e-09
6.98734e-10
-2.15109e-09
-5.07075e-09
5.55951e-12
-8.95504e-11
1.93228e-10
-1.09237e-10
7.43123e-09
3.72944e-09
-9.82083e-09
-1.33984e-09
-2.50292e-09
1.10644e-10
-1.07085e-08
-1.26618e-09
2.21998e-09
6.47743e-09
-7.2377e-09
2.36309e-09
-3.94569e-09
8.82031e-09
-4.05372e-09
4.24243e-09
5.2303e-09
-1.49485e-10
1.97256e-10
-1.88654e-11
-2.89054e-11
-3.63618e-10
4.6508e-10
-2.20517e-09
2.10371e-09
-1.64347e-10
-7.04635e-09
-1.3179e-09
1.43451e-09
-1.16601e-10
2.31062e-09
5.45753e-09
-5.74527e-09
-2.02289e-09
3.64148e-11
3.44791e-10
-6.82528e-11
-3.12953e-10
-7.87268e-11
5.30216e-11
1.98132e-09
-1.95561e-09
-1.23409e-09
5.961e-09
3.01887e-09
-7.74578e-09
-1.41069e-09
5.03982e-09
-6.2727e-09
2.64357e-09
-7.81791e-09
5.42788e-10
8.60988e-09
-1.33476e-09
-6.94411e-09
6.78238e-09
2.8061e-10
-1.18883e-10
7.62888e-09
-2.04841e-09
2.77379e-10
-5.85785e-09
-1.99919e-09
1.79604e-09
6.72626e-09
7.73645e-10
-5.04315e-09
-7.289e-10
4.9984e-09
-2.3374e-09
2.08054e-09
3.94669e-09
4.30117e-09
-4.83644e-09
-3.41142e-09
3.94077e-10
5.33795e-12
-2.2656e-12
-3.97149e-10
-1.58681e-09
3.05554e-10
1.10381e-08
-8.86591e-09
1.12045e-10
-1.30191e-09
1.00558e-08
9.76302e-09
-3.1757e-09
1.47533e-09
-8.06265e-09
1.89322e-09
-1.00497e-09
-9.69088e-09
8.80263e-09
8.67821e-09
8.72525e-10
-3.06791e-10
-9.24395e-09
2.72693e-11
-3.24682e-10
-6.43444e-09
2.55186e-10
-1.67752e-10
-8.59842e-09
8.41991e-10
-8.11489e-10
-3.26007e-10
-7.11593e-10
-9.42668e-09
1.04643e-08
-1.54332e-09
-8.30125e-09
1.92478e-09
7.91979e-09
1.03792e-10
-1.09678e-09
1.20017e-09
-2.07186e-10
-1.92386e-09
-8.02317e-09
2.14411e-09
7.80292e-09
-8.0887e-10
-8.24572e-09
1.70372e-09
7.35087e-09
-9.20163e-09
-9.63934e-10
9.43123e-09
7.34337e-10
2.49835e-09
-1.6666e-09
1.22883e-09
-2.06058e-09
-6.58701e-10
-8.19717e-09
1.41314e-09
7.44273e-09
4.16657e-12
5.55135e-11
7.21345e-09
-2.63663e-10
3.11415e-10
-4.77519e-11
3.96772e-10
-7.63745e-09
7.67745e-09
-4.36766e-10
6.84855e-09
5.33798e-10
-2.62343e-10
-7.12001e-09
3.64023e-10
-9.71817e-09
-2.41832e-09
-1.5609e-09
-1.31741e-10
1.57305e-09
1.19589e-10
4.17625e-09
-1.16141e-09
-4.82787e-09
-1.77958e-10
6.95167e-09
7.15529e-09
-6.75852e-09
8.54084e-09
3.74265e-09
-1.22902e-09
7.56885e-10
2.14002e-10
-7.6881e-10
-2.02077e-10
-8.10001e-10
3.54908e-09
-3.45596e-09
7.16883e-10
-9.30185e-09
1.12663e-09
-5.7165e-10
8.34041e-09
1.176e-09
-8.65425e-09
5.10386e-10
-4.61458e-10
-1.57176e-10
1.08248e-10
5.16674e-09
-2.56053e-09
-4.52657e-09
1.92037e-09
3.59261e-10
-2.01495e-10
-8.53278e-09
-2.47262e-09
2.17356e-09
8.39098e-10
-5.40041e-10
-1.62758e-09
-6.87245e-10
-6.02307e-09
8.33789e-09
-4.53639e-11
-4.30642e-10
4.76005e-10
-2.38595e-09
2.18122e-09
-7.67383e-09
6.66645e-09
-6.09968e-09
7.10706e-09
-9.76558e-10
9.34741e-09
1.70542e-09
3.19527e-10
-8.21855e-10
-3.44e-10
8.46328e-10
-5.25646e-10
-2.7788e-09
8.31828e-10
-6.56915e-09
-9.93337e-10
7.46089e-09
1.01587e-10
3.02495e-09
-9.07785e-09
9.90153e-09
-3.84863e-09
-3.4522e-09
-6.63539e-09
1.99102e-10
9.88848e-09
-5.05314e-10
-2.359e-09
2.64452e-09
2.19791e-10
-4.09062e-10
2.10309e-10
9.97992e-09
-1.86863e-09
1.37304e-09
-1.4482e-09
4.9713e-10
-6.62199e-09
-7.48917e-11
-8.04079e-09
9.80043e-11
-2.94673e-10
7.5917e-09
-4.76275e-11
-7.2494e-09
-2.56582e-10
7.53567e-11
9.48862e-10
-9.62987e-09
-6.86526e-10
9.36754e-09
8.91907e-11
4.13571e-10
-3.67545e-10
-1.35217e-10
2.81139e-09
-3.01541e-09
-6.18477e-09
6.38879e-09
8.06253e-11
-6.69788e-11
-1.57455e-09
5.73516e-09
7.59537e-09
-9.18737e-09
-4.14317e-09
-2.90548e-10
-3.59552e-11
1.94737e-09
-8.45531e-09
-7.35579e-11
6.58149e-09
-8.42379e-09
8.57463e-09
2.80145e-09
-8.78512e-11
1.38227e-10
7.43233e-09
2.40858e-09
-2.02496e-09
-8.18915e-09
7.80553e-09
-1.83795e-11
-8.0222e-11
-3.44805e-10
-1.97744e-09
2.15271e-09
1.69535e-10
3.68175e-10
-7.49373e-09
7.12555e-09
3.84455e-09
-7.58882e-10
-6.50723e-09
3.42156e-09
-2.34267e-10
5.59302e-11
-3.32123e-09
1.29891e-09
-1.40622e-09
3.42854e-09
3.85568e-10
-6.8557e-09
6.47013e-09
-8.00108e-09
5.38465e-09
-2.77993e-09
5.39636e-09
-5.05674e-10
7.79328e-10
1.89991e-09
-1.87676e-10
2.17949e-09
-2.07054e-09
-2.77628e-10
-1.68411e-09
1.82032e-09
1.41424e-10
6.37361e-11
-8.23698e-09
-6.42792e-12
5.65584e-10
-1.77587e-10
1.22389e-10
-1.58534e-09
2.26095e-09
-7.71289e-09
7.03729e-09
1.33164e-08
-1.18263e-08
1.77494e-09
-3.26505e-09
3.0823e-09
6.2391e-09
-6.19663e-09
-3.12478e-09
-2.39709e-10
1.54813e-09
1.23454e-10
-1.43188e-09
2.59233e-09
-6.25779e-09
6.47685e-09
-5.28626e-09
5.37844e-09
4.0614e-09
-4.15357e-09
-4.59134e-09
2.47659e-09
5.54138e-09
-3.42663e-09
-6.76159e-09
-2.5438e-09
6.63789e-09
2.6675e-09
-8.18492e-10
2.16063e-09
1.15621e-09
-3.83306e-10
4.27133e-10
7.78975e-09
5.9306e-09
-5.89146e-09
-7.82889e-09
-8.35879e-09
8.5113e-09
1.81417e-10
-3.33924e-10
-5.78438e-09
5.09976e-09
9.80452e-10
-2.95834e-10
-6.56108e-09
-2.67701e-10
6.07608e-10
6.22117e-09
6.17933e-11
-7.49477e-09
7.86657e-09
-4.33599e-10
-8.84397e-09
4.09798e-09
-3.46946e-09
8.21545e-09
-8.67896e-09
-6.71048e-10
1.32366e-09
7.52316e-10
-8.77689e-09
-1.23045e-10
5.6277e-09
2.56735e-10
-1.54376e-09
1.38718e-08
-1.03219e-08
-8.01127e-09
-2.64387e-11
-8.18235e-09
4.69668e-11
7.99882e-09
-7.54256e-09
4.12925e-09
-5.32898e-09
6.39054e-09
-5.19081e-09
1.0766e-10
-1.51684e-09
1.4898e-09
4.77656e-09
-1.00144e-09
-6.70808e-09
2.93296e-09
-1.3565e-09
1.38258e-09
-8.51358e-09
8.4875e-09
1.12666e-08
-1.37006e-09
-9.33492e-09
-5.61634e-10
-1.80915e-09
4.13539e-11
1.82082e-09
1.44015e-10
-6.3889e-10
-6.89635e-11
5.63838e-10
7.50013e-10
-3.21438e-10
2.77661e-10
-7.06236e-10
7.75914e-09
-2.48572e-09
-6.72162e-09
7.54367e-10
-1.02407e-10
1.04925e-10
5.48966e-09
-8.0083e-10
-6.1721e-09
1.48326e-09
4.30232e-09
-8.49382e-09
9.49208e-09
-5.30058e-09
2.70691e-10
-1.24332e-09
-2.47687e-10
1.22031e-09
-1.97996e-09
2.61777e-09
-2.42659e-09
1.78878e-09
7.86245e-09
-7.63791e-09
1.85687e-10
-4.10223e-10
-2.82849e-11
8.62045e-09
3.72435e-11
-8.62941e-09
-8.69675e-09
8.4499e-09
-1.10965e-09
-3.50886e-10
3.873e-10
-1.82055e-10
9.1247e-10
-9.3358e-10
2.03164e-10
-7.7387e-10
-3.51159e-10
9.10637e-10
2.14392e-10
6.17019e-09
-3.10189e-09
-4.77843e-09
1.71013e-09
-8.63246e-09
8.47858e-09
3.48782e-09
-3.01799e-09
-1.32477e-09
8.54945e-10
2.8688e-09
5.55208e-09
-4.84591e-09
-3.57497e-09
-8.21996e-10
2.91543e-11
-1.98884e-09
-8.91766e-09
1.05327e-09
-1.63761e-09
9.50201e-09
-3.32492e-10
8.24419e-09
-1.27185e-10
-7.78451e-09
-7.15525e-09
2.59189e-09
7.39237e-09
-2.829e-09
-7.48772e-09
-1.87538e-09
2.60151e-09
2.61393e-09
-2.24008e-09
-4.73374e-09
-7.83574e-09
-9.59344e-11
7.93167e-09
-8.26959e-09
8.18284e-09
2.91803e-09
1.18009e-08
-6.47903e-09
-8.23986e-09
7.21623e-09
-8.17216e-10
-7.66519e-09
-1.57314e-10
7.25172e-10
-3.28175e-09
-5.65317e-09
6.36341e-09
-9.19197e-10
2.08963e-10
1.74563e-09
-5.12818e-09
-4.72317e-09
8.10572e-09
-1.94463e-10
8.45033e-09
8.4045e-11
-8.33991e-09
1.8629e-09
-2.61787e-10
-2.10679e-09
-8.0306e-09
8.56026e-09
-9.41236e-10
-6.21286e-09
5.64853e-09
5.81719e-09
4.83768e-09
1.0265e-09
-6.01392e-09
1.49741e-10
-6.89055e-10
-7.5074e-09
7.39892e-09
7.97533e-10
1.45802e-11
-8.32481e-09
9.2591e-09
1.02079e-09
-1.15295e-09
-3.76771e-10
5.08928e-10
8.22368e-09
-5.98124e-10
2.32496e-10
-7.85806e-09
-4.56417e-10
-7.42758e-09
7.47314e-09
4.1085e-10
-8.60668e-09
8.33851e-09
-3.59451e-09
-6.14957e-09
6.72866e-09
-4.77438e-09
-4.08931e-09
4.80997e-09
1.29872e-09
8.74651e-09
-1.80908e-09
-8.23615e-09
6.9109e-09
3.4506e-10
-7.60853e-09
3.52569e-10
1.12788e-09
7.98287e-09
-7.70343e-10
3.91331e-09
-9.55718e-10
-8.66712e-09
5.70953e-09
-9.05444e-09
-8.19599e-10
-1.15224e-08
-5.95091e-09
9.79948e-09
-7.94202e-11
-7.12658e-10
8.90455e-11
-1.87284e-10
8.66887e-09
-8.82408e-09
-4.00189e-11
9.41294e-09
-1.07049e-09
-3.09986e-09
3.82736e-10
3.2661e-09
-5.48976e-10
8.07198e-09
3.70453e-10
-7.93527e-09
-5.07166e-10
-1.76845e-10
8.49009e-09
-8.91692e-09
6.03676e-10
2.26823e-09
9.98332e-09
-2.82398e-09
-9.42756e-09
-2.59574e-09
5.3837e-10
1.0313e-08
-8.25566e-09
3.47981e-09
3.08732e-09
-3.89845e-09
8.6361e-09
-8.52862e-09
-2.68684e-10
-9.42802e-09
8.06912e-09
1.05515e-10
3.66329e-10
-1.39115e-10
-3.32729e-10
-1.65003e-10
2.12254e-10
-3.37152e-10
2.89902e-10
-5.65417e-09
-2.47152e-09
5.99555e-09
2.13014e-09
9.3202e-09
-8.84641e-09
-8.255e-09
8.19299e-09
-6.58603e-10
-1.71267e-10
7.5045e-10
-6.45837e-09
1.01211e-08
-4.23818e-09
6.43964e-10
-6.27726e-11
-5.81192e-10
9.15504e-10
-9.95323e-09
5.61626e-10
8.4761e-09
-1.1557e-09
-8.92659e-09
1.49873e-09
8.58356e-09
-8.2206e-10
7.29984e-10
-2.68283e-10
3.60358e-10
-8.0742e-09
2.89622e-09
-1.56713e-09
6.74511e-09
-7.12728e-09
7.18908e-09
-7.28139e-09
-3.52974e-10
7.47002e-09
9.02093e-10
-5.1948e-10
8.36878e-09
-8.75139e-09
-8.37538e-09
1.33332e-09
2.51433e-09
-2.25289e-09
-4.49116e-10
-6.8113e-09
-1.21071e-10
6.60639e-09
3.2598e-10
1.0138e-08
-8.22269e-09
-1.54718e-09
-1.21163e-09
-1.06274e-10
-6.24965e-09
-2.77946e-09
6.69373e-09
2.33538e-09
9.90724e-10
-7.69344e-09
7.23403e-09
-5.31312e-10
1.09598e-08
-9.40192e-09
-1.71882e-09
1.60949e-10
5.45273e-10
-6.10496e-10
-7.75268e-09
-1.50685e-10
-2.73671e-10
2.59354e-10
-8.3151e-09
8.5571e-09
-7.57178e-10
-7.22848e-09
7.12157e-09
8.64093e-10
6.82965e-09
-5.73314e-09
2.64578e-09
-3.74229e-09
-1.99366e-09
2.99456e-09
7.53994e-09
8.08145e-09
-8.17866e-09
1.47407e-10
-5.01926e-11
-7.98058e-09
8.57272e-09
-9.62829e-10
4.43658e-10
7.19208e-09
3.17323e-10
-7.95306e-09
-8.37202e-09
8.34617e-09
-2.89092e-10
-8.03896e-09
8.32805e-09
-9.01966e-09
-1.18446e-09
9.56504e-09
6.39078e-10
-1.39719e-09
-7.40531e-09
1.64725e-09
3.29357e-09
-1.73533e-09
-2.54618e-09
9.8795e-10
5.62096e-09
6.78529e-09
-5.57661e-09
-9.65434e-09
9.20531e-09
-4.14206e-10
8.63233e-10
8.17464e-09
-8.35148e-09
9.30781e-09
-6.00937e-09
-6.6869e-09
3.38846e-09
-5.56821e-10
2.67876e-09
8.83786e-09
-1.69697e-12
-1.20481e-11
4.07822e-10
5.58988e-09
-7.41522e-09
3.00047e-10
7.69493e-10
-2.20131e-10
1.39019e-10
-6.92758e-10
8.74748e-09
-8.85719e-09
2.41601e-10
-1.31885e-10
-1.1694e-10
3.96706e-10
3.20914e-09
2.2822e-09
-2.22749e-09
-6.14585e-09
-8.37933e-09
2.03069e-10
8.26324e-09
-8.69799e-11
-6.8699e-09
6.78205e-09
-3.94477e-09
6.82341e-09
-4.35529e-09
1.47665e-09
-2.15392e-09
7.59622e-09
2.00339e-09
-7.44569e-09
6.07293e-09
4.60618e-09
-2.88936e-09
-5.81782e-11
-8.01372e-09
8.07189e-09
-8.53263e-09
-1.6118e-09
2.33904e-09
7.8054e-09
-9.54897e-09
8.48074e-09
-1.16576e-09
2.234e-09
-8.4932e-09
8.64263e-09
-9.73233e-11
3.52465e-10
-2.53292e-10
-1.84954e-12
-6.46782e-09
-6.67439e-10
7.83399e-09
8.65375e-09
-8.48813e-09
-3.09119e-10
1.43499e-10
-1.94296e-09
-2.12128e-09
2.24376e-09
1.82048e-09
-9.01459e-09
8.76094e-10
-4.7605e-10
8.61454e-09
4.26253e-10
-1.70065e-10
8.49129e-09
8.14475e-10
8.62462e-09
-9.01284e-09
-9.13519e-09
1.31589e-09
-2.85822e-09
-1.104e-09
1.28122e-09
2.68101e-09
-8.10528e-09
-1.16753e-09
8.98373e-09
-8.74561e-09
8.18879e-09
5.98279e-10
-8.96093e-09
-6.91787e-10
3.5301e-09
-5.62952e-09
-5.73611e-09
7.83553e-09
-1.59208e-09
6.07695e-09
-6.13961e-09
-2.14702e-09
2.44118e-09
5.84545e-09
-8.77663e-09
8.84017e-09
5.0674e-11
-1.14217e-10
-2.31036e-09
9.41141e-10
-7.19898e-10
2.08912e-09
-3.63875e-10
-1.38744e-09
1.51161e-09
1.82488e-09
-5.53389e-11
7.14019e-11
-1.84094e-09
4.75759e-11
-7.823e-11
-2.14393e-10
2.45047e-10
-8.32831e-09
8.89411e-09
-6.41201e-10
1.4521e-09
-8.75938e-09
8.73941e-09
-1.43213e-09
-4.1849e-10
-1.63969e-09
1.78055e-09
7.53427e-09
-1.33392e-09
-8.19401e-09
-6.16678e-09
4.25299e-09
7.49634e-09
8.94036e-09
-9.09947e-09
1.87016e-10
-2.78988e-11
7.80136e-09
-7.97142e-09
-4.76482e-10
8.58466e-09
-8.10818e-09
-5.10823e-10
-1.92814e-09
2.09416e-09
6.86931e-11
-1.41672e-10
-5.85624e-10
2.01434e-09
-8.74937e-09
8.95943e-09
-2.2244e-09
8.81146e-09
-1.02768e-08
1.17709e-09
-5.5467e-10
1.77731e-09
2.90381e-10
-1.08486e-08
8.78092e-09
-6.96113e-09
1.81943e-09
-1.51538e-09
6.65708e-09
-5.05052e-09
3.93571e-09
4.95936e-09
8.06323e-10
5.99159e-09
-9.72855e-10
-5.82506e-09
-3.28798e-10
1.4381e-10
4.07354e-10
6.89759e-11
-4.70992e-10
-6.16332e-10
2.5609e-10
-7.92982e-10
-2.29619e-09
2.58386e-09
5.49784e-10
-1.63022e-10
8.55359e-09
8.50949e-10
8.64963e-09
-8.95079e-09
-8.37797e-09
6.30494e-10
-8.9811e-09
1.00402e-08
-1.72625e-09
1.96029e-09
5.32215e-09
-2.20683e-09
-5.07561e-09
-1.01201e-09
1.01714e-09
-1.87183e-10
1.65217e-09
-2.23916e-10
4.34647e-10
3.00999e-09
-6.35353e-09
1.82315e-11
8.10331e-09
-8.12154e-09
-7.44625e-09
-3.06827e-10
1.1516e-10
-8.14537e-09
1.12909e-09
8.46838e-09
8.56038e-09
-8.59829e-09
9.7902e-11
-5.99855e-11
-8.32523e-09
8.3904e-09
-5.03546e-09
1.98579e-10
3.78444e-09
8.4201e-12
-8.01855e-09
8.01013e-09
9.14129e-10
-3.36924e-10
4.43588e-10
7.68771e-09
1.53601e-10
-2.79417e-10
5.3701e-10
-3.3933e-10
-1.84018e-10
-1.3662e-11
1.2763e-09
-1.44121e-09
1.46076e-09
-1.29586e-09
-1.01202e-08
-1.72557e-09
1.11684e-08
6.7735e-10
1.97358e-10
-1.07984e-10
8.471e-09
3.0088e-09
-6.15724e-09
8.97628e-09
-5.82784e-09
-8.02207e-09
7.85905e-09
-1.84621e-10
7.87022e-09
-7.6856e-09
2.37713e-10
8.67142e-09
-8.71177e-09
-8.98418e-09
-7.99572e-11
3.192e-09
-3.10296e-09
-3.17664e-10
-1.92666e-10
2.84326e-10
1.60447e-09
5.76745e-09
-7.32787e-09
-4.40481e-11
-8.67e-09
8.66088e-09
-4.29372e-12
1.34053e-11
8.61678e-09
-8.538e-09
-6.86894e-11
-1.00883e-11
7.23764e-09
-7.05195e-09
1.89886e-10
-3.9322e-10
7.89104e-09
-2.55689e-09
-7.04266e-09
7.37157e-09
2.22798e-09
-5.52783e-09
1.14862e-09
6.3395e-09
-7.02373e-09
-7.62274e-11
4.94603e-09
-7.00581e-09
5.37951e-11
7.90628e-12
-4.97055e-09
-4.44911e-09
3.30555e-09
6.11411e-09
-8.84796e-09
1.08623e-08
-7.9546e-09
-6.01216e-09
6.64527e-09
7.32149e-09
-7.33341e-09
-8.60578e-10
1.17026e-09
-7.86174e-09
7.75375e-09
-1.62329e-10
8.04997e-09
-7.88764e-09
-7.17015e-09
-1.11856e-09
1.32757e-09
3.15227e-09
-7.01903e-09
-1.0706e-08
3.3942e-09
6.68234e-09
-8.5738e-09
-1.50275e-09
5.15991e-10
-8.40344e-09
-9.78465e-10
-8.39619e-09
-1.06131e-09
-7.57056e-09
-5.38459e-10
7.35184e-09
-5.05011e-11
3.28375e-10
-3.62246e-10
8.43713e-11
-1.37476e-09
1.62655e-09
-2.58919e-09
-7.36753e-09
7.27985e-09
-6.6915e-09
8.13382e-09
-2.01484e-09
5.72525e-10
6.8173e-09
8.46751e-09
-7.13529e-09
-8.14953e-09
-7.95454e-09
3.2823e-11
7.92172e-09
-6.22374e-10
-7.36117e-09
7.29449e-09
-9.53297e-09
-6.09967e-10
8.98724e-09
8.44259e-10
-3.88396e-10
1.75425e-09
1.02961e-08
-1.20503e-08
9.3322e-09
-5.91374e-09
-4.00163e-09
5.83167e-10
-2.39041e-09
-6.29985e-09
3.46806e-09
5.22221e-09
-1.05047e-08
5.68433e-09
7.08856e-09
8.22095e-09
5.10206e-10
-8.53894e-09
-1.92221e-10
1.30703e-09
2.1936e-09
-1.34765e-09
-2.15298e-09
-1.91099e-09
4.2501e-09
-3.78852e-09
1.44941e-09
-4.25929e-10
2.58195e-11
3.49608e-10
2.41232e-10
6.5371e-10
-1.59249e-10
-7.35693e-10
-9.79606e-11
-2.32653e-10
2.4152e-10
8.90942e-11
-7.37341e-09
-4.9177e-10
7.40876e-09
-7.00893e-09
-9.55843e-10
6.56758e-09
1.86143e-10
-7.56266e-11
-7.57074e-09
7.46022e-09
3.55117e-10
-7.70458e-09
7.5356e-09
-3.96416e-10
2.00478e-09
-1.97198e-09
-2.04809e-10
-2.56241e-09
4.64744e-09
4.06124e-09
-4.66855e-09
-4.04012e-09
-8.08109e-09
5.24463e-11
8.02864e-09
1.89936e-09
-1.38881e-09
-9.18951e-09
-1.70298e-09
-7.50282e-09
1.21748e-09
7.98832e-09
6.58386e-09
-2.4748e-09
2.02281e-09
-6.13186e-09
4.484e-09
-5.7876e-09
5.48672e-09
3.57235e-09
-9.94821e-10
2.90503e-09
-5.48255e-09
6.46582e-09
2.28902e-10
2.3304e-11
-2.0463e-10
-3.48126e-10
3.05235e-10
-8.63229e-11
1.29213e-10
9.56082e-11
-3.96193e-10
4.31409e-10
-1.30824e-10
2.57915e-11
-1.86564e-10
-1.87922e-11
1.79565e-10
1.99069e-09
-3.10791e-09
-7.1372e-09
7.0463e-09
9.0894e-11
-2.3827e-10
8.32704e-09
1.3492e-10
2.80018e-09
-3.65166e-09
4.4933e-09
-3.64182e-09
-5.9765e-09
3.11028e-10
6.21623e-09
-7.22462e-10
1.94232e-09
-2.03835e-09
-2.64764e-11
-9.12879e-09
8.62215e-09
5.33126e-10
-4.40561e-10
-3.95593e-09
-6.91584e-10
2.44113e-09
-8.41183e-11
-4.55765e-10
2.98865e-09
7.60679e-10
7.33742e-09
2.25947e-10
-2.9739e-10
-7.26598e-09
5.48839e-09
2.45455e-09
-2.62078e-09
1.27487e-09
-2.12826e-09
2.16041e-09
8.50612e-09
6.39417e-10
-8.45062e-09
-6.94921e-10
4.33412e-11
-8.18561e-11
3.23889e-10
-4.08804e-10
-7.34266e-09
9.60759e-09
1.5758e-09
-9.40815e-09
-1.77524e-09
8.98213e-09
-1.66541e-09
2.01473e-09
-9.33145e-09
-2.19479e-10
8.28249e-09
-8.06301e-09
1.13375e-08
-1.39755e-08
2.63792e-09
4.77907e-10
-3.74089e-10
-2.24213e-09
-8.73666e-09
8.43499e-09
-1.98131e-10
2.34262e-09
-2.14449e-09
7.87824e-09
-7.91826e-09
5.27215e-09
-3.84433e-09
-6.59732e-09
5.1695e-09
-2.04701e-10
-5.92329e-09
6.43786e-09
-3.09876e-10
5.1787e-10
5.01898e-09
-4.84638e-09
-6.90474e-10
7.98216e-09
5.45617e-09
-5.12956e-09
-8.30877e-09
1.67622e-10
-1.94628e-10
4.34566e-10
-4.07559e-10
-1.68321e-09
1.32807e-09
-1.28824e-09
1.64338e-09
4.14678e-09
-6.32686e-09
3.00861e-09
-8.28532e-10
7.02137e-09
1.58925e-09
-7.45453e-09
-1.15609e-09
3.40348e-09
-3.76122e-09
5.33158e-09
-4.97384e-09
-1.24647e-09
1.30619e-09
1.20042e-09
-1.26014e-09
-2.43688e-10
7.29826e-10
-7.86623e-09
7.38009e-09
8.72637e-09
6.31615e-09
-9.11193e-09
7.83755e-10
-7.67137e-11
7.97117e-09
2.06849e-10
-5.00738e-09
6.00177e-10
4.20035e-09
1.66407e-09
-1.31602e-09
-3.25561e-09
2.90756e-09
-4.15857e-09
-4.47944e-09
1.00056e-09
5.89094e-10
-9.50344e-09
1.00689e-08
-1.15452e-09
1.95435e-09
-2.36269e-09
-8.71016e-09
-4.69954e-10
1.09349e-10
1.28974e-10
-2.20105e-10
2.59157e-10
-1.68025e-10
-1.02013e-09
1.10784e-09
-8.7705e-11
4.54731e-10
9.66905e-12
-3.68792e-10
-1.17902e-09
8.14709e-09
1.10392e-09
4.32936e-09
-1.51635e-09
7.1217e-09
-9.93472e-09
8.53073e-09
-4.58429e-09
4.77994e-09
-4.33153e-09
4.92488e-09
3.96478e-09
7.8666e-09
-3.30065e-09
1.65204e-09
8.54809e-09
-2.93157e-09
-7.26856e-09
8.80436e-09
-9.26576e-09
1.53544e-09
-1.07404e-09
-6.98817e-09
6.45571e-09
4.01923e-09
-3.48678e-09
-1.98941e-09
7.38035e-09
5.87568e-09
-2.56968e-11
4.58888e-11
-1.39291e-10
1.19099e-10
-4.38671e-10
3.45081e-10
4.5458e-09
-4.45221e-09
-1.23831e-09
1.56505e-09
-1.04919e-09
-1.50103e-10
1.97495e-09
-1.82485e-09
-5.40127e-10
-7.84567e-09
1.00219e-09
7.38361e-09
-1.40126e-10
-7.69561e-09
-5.67454e-09
7.42383e-09
-1.21767e-09
-9.60782e-09
1.68792e-09
9.13757e-09
-2.56242e-10
2.57817e-10
-9.95356e-11
4.47169e-10
1.11333e-08
-1.16695e-08
8.89833e-11
-7.87816e-11
5.49076e-09
-3.96108e-09
-1.45089e-09
-7.21282e-09
-3.04801e-09
4.93776e-09
-8.44302e-09
6.55327e-09
4.71478e-10
-8.38816e-10
8.52861e-09
-8.16128e-09
-7.1275e-09
5.2517e-09
-3.52529e-10
1.23958e-10
-4.33042e-10
5.67317e-10
-1.28723e-09
7.3552e-11
4.94116e-10
-3.06579e-11
-9.50078e-09
2.88378e-09
9.53502e-09
4.61943e-09
-4.39437e-09
5.0471e-09
-1.17998e-10
1.6955e-09
-1.70924e-09
-4.04018e-09
9.05737e-11
4.38049e-10
-9.72144e-11
4.77202e-09
-2.70093e-09
-4.49174e-09
9.52762e-09
1.41004e-09
-2.1333e-09
7.35356e-11
-9.245e-10
9.99501e-10
-1.48537e-10
-2.40825e-09
-3.89929e-09
4.16375e-09
-3.02759e-10
3.94828e-10
-7.92375e-09
2.4852e-09
6.89871e-09
3.59661e-09
-2.09083e-09
-6.44347e-09
-1.91363e-09
4.59653e-10
4.93426e-09
-3.48028e-09
-1.25468e-10
-1.55796e-09
1.68343e-09
-6.57533e-09
6.57949e-09
-7.73652e-09
2.18058e-09
-1.80405e-09
7.35999e-09
-7.00587e-09
-1.48577e-09
1.32149e-09
-9.48962e-09
-1.94054e-09
1.80152e-09
9.62864e-09
-2.53636e-10
9.7185e-11
-7.2898e-09
6.93832e-09
-2.48084e-10
-6.69024e-09
-2.81068e-10
-9.35673e-11
4.45269e-11
3.30108e-10
-1.12272e-09
1.03514e-09
-1.17522e-09
1.2628e-09
1.54964e-09
1.49898e-08
-6.90024e-09
-9.63923e-09
-7.0842e-09
-3.51516e-10
1.54322e-10
-3.17801e-09
6.76915e-09
6.38879e-09
5.52093e-10
-5.86345e-10
2.88332e-09
7.46176e-10
5.89812e-09
-1.70511e-09
5.24665e-09
-5.98602e-09
2.44448e-09
-2.02734e-10
-8.91212e-10
7.87873e-09
-7.84908e-09
8.6156e-10
8.48036e-09
9.72236e-10
-9.13176e-09
-3.20831e-10
-9.4485e-11
-8.42451e-09
1.39673e-10
-7.38828e-09
4.90559e-10
7.30275e-09
-4.05023e-10
2.91077e-09
-8.16569e-09
8.36098e-09
4.86389e-09
-2.95083e-09
-9.00922e-09
7.09616e-09
4.15147e-10
-1.54231e-10
1.05413e-10
6.55052e-10
3.16164e-10
8.15496e-12
-3.74007e-10
9.8794e-09
5.57867e-10
-1.25943e-09
-9.17783e-09
-3.29548e-09
7.32493e-09
-9.83404e-11
9.83691e-11
-7.17434e-11
7.17146e-11
-4.85806e-09
2.37098e-09
3.73637e-09
-1.24929e-09
-7.0567e-09
7.90997e-09
2.15553e-09
6.51655e-09
-3.11318e-09
3.0305e-09
-6.43388e-09
2.93003e-09
-5.50147e-09
-1.82867e-09
4.4001e-09
2.42274e-09
-4.93049e-09
1.11845e-08
9.20035e-09
-7.79247e-09
7.40767e-09
-5.29954e-09
4.37978e-09
-3.9383e-09
-5.17875e-12
2.06218e-11
8.84532e-09
-8.86076e-09
1.1382e-10
-9.14664e-09
-3.29652e-10
9.36247e-09
5.48348e-09
-5.69016e-09
-1.37066e-09
1.57734e-09
9.11041e-10
6.87637e-11
-6.73342e-11
-2.87182e-09
2.45467e-09
5.71755e-10
-1.54603e-10
-5.24571e-09
2.58871e-09
-3.11582e-09
5.77282e-09
1.04473e-09
-1.05112e-09
1.15896e-09
-9.47303e-09
7.59565e-09
7.18418e-10
8.13706e-10
-6.78167e-09
-5.13983e-09
1.11078e-08
-5.97662e-09
-5.2808e-09
7.66291e-09
1.85953e-09
8.40136e-09
-9.01781e-09
-3.70745e-09
3.51824e-09
6.70577e-09
-1.13982e-08
1.18453e-08
3.14174e-09
4.78571e-09
-5.91956e-09
-9.46597e-10
-8.82141e-09
1.11808e-09
-1.56242e-09
-4.36838e-09
-4.73993e-09
2.9687e-09
4.80967e-11
-1.79309e-11
-1.42331e-09
1.39314e-09
-1.13315e-08
-6.66184e-11
6.71775e-09
-2.7954e-09
-6.07344e-09
-1.79878e-09
-6.4029e-09
-6.26051e-09
5.90058e-09
1.55234e-10
-2.1256e-09
-8.46617e-09
1.83239e-09
-4.69429e-09
6.30476e-09
4.55972e-09
-2.10249e-10
-4.5575e-10
4.71371e-10
-8.0112e-09
6.21602e-11
7.94904e-09
2.37554e-10
-6.61509e-11
8.50989e-09
-2.06751e-09
-8.07821e-10
-5.19887e-09
3.29905e-09
-7.8407e-09
-1.69635e-09
-7.82651e-09
2.03514e-09
3.31868e-09
4.73225e-09
5.80774e-10
2.1695e-10
-9.5448e-09
-6.5584e-10
1.51114e-09
8.68949e-09
-8.32e-09
7.93305e-10
7.52669e-09
-4.70045e-09
4.77965e-09
-2.68708e-09
-5.97338e-09
2.55344e-09
6.10702e-09
-3.96055e-09
5.23092e-09
-6.2419e-10
1.00013e-08
-8.53508e-09
-4.9445e-09
5.20951e-09
-2.77253e-09
2.50752e-09
9.01024e-09
-1.18524e-09
-9.81441e-09
-1.218e-09
1.42335e-09
-8.89661e-10
8.90331e-09
-8.01365e-09
-4.935e-09
-3.06061e-09
7.30837e-09
-5.5361e-10
-8.35414e-09
2.95265e-10
9.67924e-09
-3.33397e-09
3.59954e-09
-9.94481e-09
9.28889e-09
2.46375e-10
-2.12146e-10
-1.12459e-10
3.92167e-09
-2.40277e-10
8.92819e-10
-4.57421e-09
-1.02269e-10
5.75293e-11
4.91798e-11
-4.32997e-09
-3.65665e-09
7.52123e-11
1.51626e-09
-1.54338e-09
-1.81058e-10
-1.14852e-09
1.19118e-09
-6.47757e-09
5.76153e-09
-8.61704e-10
1.57774e-09
1.06038e-09
-4.98887e-09
-2.24627e-10
4.15312e-09
-5.83764e-09
-3.51584e-09
7.11135e-09
-3.99773e-10
-8.80641e-11
-9.10034e-10
-8.15121e-09
8.17003e-09
6.45854e-09
-1.73998e-09
-5.18589e-10
1.01444e-09
-8.88333e-09
8.35439e-09
-4.85493e-10
7.73085e-09
-6.16866e-10
-7.39462e-09
2.80637e-10
-5.53953e-09
-2.92531e-09
6.8407e-09
1.62413e-09
3.39066e-09
9.02141e-09
-1.12854e-08
1.04466e-09
2.2058e-10
-1.14503e-09
-1.20206e-10
-8.36276e-09
-9.33327e-11
8.56813e-09
4.51181e-10
-4.81139e-10
-5.69107e-09
4.26385e-09
6.68343e-10
-3.72597e-10
-6.1401e-09
6.85348e-09
-3.40787e-10
-6.13934e-09
5.37763e-09