/*--------------------------------*- C++ -*----------------------------------*\
  =========                 |
  \\      /  F ield         | OpenFOAM: The Open Source CFD Toolbox
   \\    /   O peration     | Website:  https://openfoam.org
    \\  /    A nd           | Version:  8
     \\/     M anipulation  |
\*---------------------------------------------------------------------------*/
FoamFile
{
    version     2.0;
    format      ascii;
    class       volVectorField;
    location    "0.8";
    object      U;
}
// * * * * * * * * * * * * * * * * * * * * * * * * * * * * * * * * * * * * * //

dimensions      [0 1 -1 0 0 0 0];

internalField   nonuniform List<vector> 
6388
(
(0.000933048 -8.72571e-06 1.91094e-21)
(0.00091027 -2.0805e-05 0)
(0.000157685 -1.40183e-05 0)
(0.000837068 0.000287079 -7.65154e-22)
(0.000690125 0.00129543 5.39123e-21)
(0.000575811 0.000944796 -4.88376e-23)
(0.000452068 0.000414812 3.56444e-21)
(0.000570672 0.000813726 3.49222e-21)
(0.000358091 0.000276368 -1.51892e-21)
(0.000116232 0.000577143 0)
(0.000529439 0.00108656 0)
(7.2733e-05 0.000634858 0)
(0.000580322 0.000591963 -2.45363e-24)
(0.000611316 0.00111034 3.81592e-21)
(0.000433281 0.000562193 5.21265e-21)
(0.00062215 0.000716325 0)
(0.000521545 0.000872534 4.00533e-21)
(0.000563947 0.0010236 -5.0933e-23)
(0.000252246 0.000570908 0)
(0.000127043 0.000453482 1.1681e-23)
(0.000497337 0.000673076 -1.85759e-21)
(0.000667978 0.000783465 0)
(0.000566989 0.0010902 -1.5934e-21)
(0.000882234 0.00118267 1.59944e-21)
(0.000620708 0.00105436 -3.88287e-21)
(0.000217588 0.000574494 -3.18569e-22)
(0.000656454 0.00061122 0)
(0.000443343 0.00074622 9.33891e-22)
(0.000316416 0.000635916 1.54578e-21)
(0.000721363 0.000262519 -3.77474e-21)
(0.000556781 0.00108223 0)
(0.000560759 0.00107826 1.52755e-21)
(0.000635956 0.000886466 -4.13699e-21)
(0.00062063 0.00115292 2.24118e-21)
(0.000556611 0.00106537 2.83973e-21)
(0.000447629 0.00101917 0)
(0.00065923 0.00102254 9.5883e-22)
(0.000112576 0.000796789 1.27956e-21)
(0.000594265 0.000625058 9.39072e-22)
(0.000441172 0.000988561 2.1666e-21)
(0.000164847 0.000503336 4.39936e-21)
(0.000173711 0.000511264 -1.99263e-21)
(0.000923047 -8.43129e-05 -1.89066e-21)
(0.000565818 0.00113425 -2.53769e-24)
(0.00056604 0.000228815 -4.44872e-21)
(0.000256632 0.000738297 -9.04153e-22)
(0.000921666 3.1919e-05 -1.8896e-21)
(0.000274575 0.000375931 8.26291e-22)
(0.00103679 0.00028076 -2.79593e-24)
(0.0008164 0.00069463 -2.10811e-21)
(0.000167995 -5.94961e-05 1.05768e-21)
(0.000895833 -2.32933e-05 7.47715e-21)
(0.000326532 0.000430827 -5.43348e-21)
(0.000217137 0.000478084 2.02489e-21)
(9.95946e-05 0.000650905 2.11931e-21)
(3.14397e-05 6.57094e-05 0)
(0.000788189 0.000806846 3.15941e-21)
(0.000835274 0.000335904 0)
(6.46365e-05 0.00044067 -2.44387e-21)
(0.000339865 0.000463818 -3.08352e-21)
(0.000625043 0.00110013 1.49049e-21)
(0.000621694 0.000330664 0)
(0.000344739 0.00066793 -8.66803e-24)
(0.00104297 0.000336467 6.54239e-22)
(0.000469685 0.00101647 3.26282e-21)
(3.67032e-05 2.42511e-06 2.22681e-21)
(0.000474161 0.000906857 2.14527e-21)
(0.000592867 0.000732807 1.71237e-21)
(0.000123525 0.000770278 2.6395e-22)
(3.64725e-05 -2.99372e-06 0)
(0.00135144 0.00102299 -2.43246e-21)
(0.000588989 0.00103449 -1.83271e-21)
(0.000715956 0.000909461 7.40237e-22)
(0.000570525 0.00119257 3.16842e-21)
(6.42175e-06 0.000116328 -3.05397e-22)
(0.000491011 0.000407401 1.38603e-24)
(0.00060121 0.00106332 1.19758e-23)
(0.000529888 0.000344802 -2.48856e-21)
(0.000927525 0.000345335 1.60227e-21)
(0.00058899 0.00102863 -1.21033e-21)
(0.000249108 0.000670331 4.79293e-22)
(0.000190764 0.0010884 -4.46341e-23)
(0.000138247 0.000836641 0)
(0.000134232 0.000816827 -3.75711e-23)
(0.000130968 0.000799978 0)
(0.000161316 0.000950562 -4.23548e-23)
(0.000723845 0.00132712 -2.48909e-21)
(0.000216175 0.00119519 4.57816e-23)
(0.000144069 0.000861567 -1.21333e-24)
(0.000151034 0.000898506 -2.7154e-23)
(0.000174091 0.00100927 -3.06507e-23)
(0.000127723 0.000783599 -2.48591e-23)
(3.66648e-05 3.04706e-06 -6.65243e-21)
(0.000934469 0.000132592 2.36287e-21)
(0.000515809 0.000655502 0)
(0.000874262 0.000207444 0)
(3.74577e-05 7.85115e-07 -4.51992e-21)
(0.000614132 0.00108426 1.12916e-21)
(0.000943289 0.000229988 -3.86955e-21)
(0.00122865 0.000535216 -2.54944e-21)
(0.000262809 0.000573933 -2.71767e-21)
(0.000493836 0.00115419 -2.6808e-24)
(0.000581958 0.000813874 0)
(0.000125671 0.000628897 4.31887e-21)
(0.000136115 0.000685438 -3.17422e-21)
(0.00070172 0.00121102 4.33151e-21)
(0.000306905 0.000303112 -3.82408e-21)
(0.00047933 0.000905578 0)
(0.000379151 0.00064991 2.6183e-21)
(0.000206152 2.17085e-05 -4.32087e-21)
(0.000358352 0.000497358 -2.35811e-21)
(0.000628801 0.00100644 -2.02244e-21)
(0.000640011 0.00107579 0)
(4.91723e-05 0.000465312 4.58631e-22)
(0.00111391 9.98585e-05 9.68484e-22)
(0.00109323 0.000132123 -3.30566e-21)
(0.000885341 0.00119552 0)
(0.000885376 9.98789e-05 -8.2418e-22)
(0.000611546 0.000530968 2.38761e-22)
(8.16847e-06 0.000159785 0)
(0.000438344 0.00101236 0)
(0.000201895 -0.000130282 0)
(0.000428037 0.000657566 -2.94239e-22)
(0.000308256 0.000250201 -6.05902e-22)
(0.000591477 0.00102489 -6.27887e-22)
(0.000975723 0.000214443 2.50394e-21)
(0.000408684 0.000298494 -4.54876e-21)
(0.000511265 0.000596549 -3.52822e-21)
(3.73852e-05 0.000206037 -6.95623e-22)
(0.000170022 0.000590183 -2.61094e-21)
(0.000449811 0.00103531 1.54626e-21)
(0.00041798 0.000769092 2.46195e-21)
(0.000284241 0.000301298 -1.98842e-21)
(0.000925562 0.000154396 0)
(2.23148e-05 8.58997e-06 4.0894e-21)
(0.000774164 0.00122143 -1.44711e-21)
(0.000856563 0.00125231 2.10037e-21)
(0.000655951 0.0013577 2.16207e-21)
(0.000629009 0.000282849 -2.76771e-21)
(0.000290113 0.000655386 0)
(0.000611588 0.00106556 5.38254e-22)
(0.000858368 1.20078e-05 7.9347e-25)
(0.000420193 0.000645728 5.49492e-23)
(0.000620431 0.000212139 3.31755e-21)
(0.000126311 0.000165773 1.75387e-21)
(0.000879575 0.000888837 0)
(0.00027064 0.000350891 2.09876e-21)
(3.49211e-05 -3.03e-06 4.14458e-21)
(0.000769315 0.000710948 3.9868e-23)
(0.000808815 -5.72081e-05 0)
(0.000391186 0.000804085 -4.72446e-21)
(0.000943898 0.000249211 3.17241e-21)
(0.000213961 0.000760454 -2.50109e-21)
(0.000631812 0.000963818 9.72623e-22)
(0.000141216 0.000670076 3.99692e-22)
(0.000485587 0.000560982 0)
(-6.19644e-05 0.000758321 -1.94603e-22)
(0.000173248 3.28052e-06 1.57658e-21)
(0.000581086 0.00101433 -1.22166e-21)
(0.000849678 0.00132636 3.77131e-21)
(0.000600768 0.000148043 -3.21095e-21)
(0.00108641 0.000115726 -3.0401e-21)
(0.000623989 0.000988359 -3.59654e-21)
(0.000235758 0.000811151 3.04457e-21)
(3.74877e-05 -1.56494e-06 -2.35648e-21)
(0.000608323 0.00101058 0)
(0.000384266 0.000988047 -2.00547e-21)
(0.000395594 0.0010049 3.33499e-23)
(0.000376138 0.000968363 -5.91018e-21)
(0.000203624 -0.000277045 2.93491e-21)
(0.000572628 0.0011529 3.16947e-21)
(0.000405225 0.000750169 -1.79033e-21)
(0.000585768 0.000821325 7.95981e-21)
(3.38851e-05 -3.75194e-06 0)
(0.00160937 0.000155613 1.71518e-21)
(0.000492406 0.00113257 7.11395e-21)
(0.000398378 0.000286315 -9.0707e-22)
(0.000198894 -0.000346056 1.44848e-21)
(0.00112554 4.97281e-05 -4.55148e-21)
(0.000394985 0.000755141 0)
(0.00121119 0.000833263 6.50777e-22)
(0.000226305 0.00074103 0)
(0.000548022 0.00115973 -1.60745e-21)
(0.000578191 0.0011134 1.10886e-21)
(0.00065872 0.000836479 -2.28237e-21)
(0.000615708 0.00112572 -4.6449e-21)
(0.000297955 -9.2854e-05 5.37415e-21)
(0.000537155 0.00100595 3.81303e-21)
(0.000785253 0.0009197 -2.43857e-22)
(0.000447769 0.000987094 -5.27205e-24)
(0.000457939 0.00100629 -8.11742e-21)
(0.000398822 0.000840995 -4.56089e-24)
(0.000565341 0.0010263 1.32309e-21)
(0.00103417 -3.66329e-06 0)
(0.0005382 0.000865869 -4.49447e-21)
(0.000306211 -0.000127444 3.29562e-21)
(4.39914e-05 -1.1768e-06 0)
(0.000246098 -0.0001397 1.92186e-21)
(0.00056929 0.0011551 -4.70637e-21)
(0.000670825 0.00121862 1.73497e-21)
(0.000541847 0.000946939 2.69535e-21)
(0.000762588 0.00131456 1.42978e-21)
(2.76193e-05 -5.51419e-06 8.24908e-21)
(0.00051288 0.000947537 2.55059e-21)
(0.000536169 0.000988852 -5.49484e-24)
(0.000522903 0.000966896 0)
(0.000551398 0.00124695 -1.52357e-21)
(0.000610826 0.00124308 -1.76892e-21)
(0.000120449 -5.79035e-05 2.88202e-24)
(0.000612452 0.000531615 1.64597e-21)
(0.000666742 0.00120091 0)
(0.000566315 0.00123578 1.36651e-21)
(0.000765874 0.00132978 0)
(0.000563896 0.00095121 2.16725e-21)
(0.000574559 0.00114402 -2.33754e-21)
(0.000496974 0.00099205 0)
(0.000508482 0.00101501 1.08438e-21)
(0.000487107 0.00097232 1.09106e-21)
(0.000620187 0.00118377 -1.35797e-21)
(0.000603144 0.000997221 -3.28296e-21)
(0.000724616 0.00136855 -1.45211e-21)
(0.000548271 0.000284291 0)
(0.00073106 0.00142274 -1.48906e-21)
(0.000709626 0.0010367 -3.2193e-21)
(0.000140868 -6.56617e-05 -2.45275e-21)
(0.000523827 0.000857934 -6.72776e-23)
(0.000602108 0.00122662 1.86344e-21)
(0.000573412 0.00113792 1.22658e-21)
(0.000483257 0.000999667 0)
(0.000494166 0.00102273 -1.12101e-21)
(0.000473873 0.000979842 -1.12745e-21)
(0.000309478 0.000887715 -1.79622e-21)
(0.000563798 0.00126468 2.69209e-21)
(0.000283384 0.000373556 -1.16658e-21)
(0.00039023 0.000729598 3.64831e-21)
(0.000650828 0.00130812 -2.47914e-21)
(0.000368309 0.000951736 8.55002e-21)
(0.000595564 0.00141602 2.22978e-21)
(0.000618933 0.00114271 -1.66637e-21)
(0.000653027 0.00122669 -3.83187e-21)
(0.000579697 0.00103954 0)
(0.000593279 0.00106332 0)
(0.000568175 0.00101909 0)
(0.000676593 0.00132351 2.15381e-21)
(0.000464274 0.000996045 2.93094e-23)
(0.000475471 0.00101922 2.84808e-23)
(0.000454987 0.000976096 2.83336e-23)
(0.000532198 0.00116056 2.30448e-21)
(0.00060616 0.00106149 6.6654e-22)
(0.000568651 0.000996033 0)
(6.44403e-06 -6.45908e-05 0)
(0.000770882 0.00130759 -5.61975e-22)
(0.000665791 0.00117895 0)
(0.000534473 0.000997939 4.32498e-24)
(0.000548042 0.00102056 -1.64349e-21)
(0.000523759 0.000978225 -1.60898e-21)
(0.000574437 0.00115569 -1.5218e-21)
(0.000576118 0.00116745 -7.48082e-24)
(0.000719882 0.00140914 1.20435e-21)
(0.000640696 0.000942832 -2.69648e-21)
(0.000574307 0.00114657 2.90323e-23)
(0.000600203 0.000904222 3.96329e-21)
(0.000612324 0.000922844 1.39178e-21)
(0.000611848 0.00131966 1.61495e-21)
(0.000576108 0.00114501 -1.07688e-21)
(0.000473864 0.00101112 1.53451e-21)
(0.000495794 0.00105499 -2.96477e-21)
(0.000483763 0.00103146 1.58812e-21)
(0.000496528 0.000992961 -3.14776e-21)
(0.000508009 0.00101593 -1.00619e-21)
(0.000486682 0.000973221 -1.01211e-21)
(0.000628327 0.0013221 -1.01147e-21)
(0.000507444 0.00107536 -1.20638e-21)
(0.000729694 0.0012713 -6.24591e-22)
(0.000322715 0.000737024 -1.43063e-21)
(0.00054276 0.00109184 1.06076e-21)
(0.000216456 -0.000114443 0)
(0.000455117 0.000963474 0)
(0.000493099 0.00104082 9.88692e-22)
(0.000474825 0.000957453 -6.17707e-24)
(0.000761524 0.001419 2.85267e-23)
(0.000711457 0.00127202 0)
(0.000507096 0.00110379 -1.02331e-21)
(0.000838362 0.00072133 3.41663e-21)
(0.000434107 0.000978504 2.01526e-21)
(0.000840227 0.000437846 2.25643e-21)
(0.000524241 0.00104705 1.26915e-21)
(0.00062357 0.00121505 1.40399e-23)
(0.000376225 0.000617351 4.03468e-21)
(0.000546888 0.00105271 -4.36284e-22)
(0.000744496 0.00130445 -1.21755e-21)
(0.000348952 0.00070983 -6.50897e-22)
(0.000504689 0.001022 -2.32557e-21)
(0.000346288 0.000521476 2.24873e-21)
(0.000535937 0.00109402 1.2726e-21)
(0.00063284 0.00121062 2.71848e-21)
(3.19861e-05 -1.48341e-09 0)
(0.000549578 0.00100462 1.7856e-21)
(0.000567637 0.000952238 1.66456e-21)
(0.00079867 0.000702069 -5.27107e-23)
(0.000719455 0.0014456 -1.89764e-21)
(0.000485315 0.000982991 -3.59636e-21)
(7.27921e-06 1.24749e-05 -7.0493e-21)
(0.000609008 0.00130327 1.06915e-21)
(0.000540798 0.00117733 1.48831e-21)
(0.000513954 0.00109258 2.2418e-21)
(0.000593295 0.000908354 -1.32292e-21)
(0.000619323 0.000949133 -1.31525e-21)
(0.000605312 0.00092717 -1.36933e-21)
(0.000772515 0.00146727 -7.67337e-22)
(2.30544e-05 5.20024e-05 -2.67889e-21)
(0.000496544 0.0010012 -1.91113e-21)
(0.000154877 0.000199228 5.30795e-22)
(0.000406295 0.000950426 -2.20796e-21)
(0.000571554 0.00100376 5.12921e-21)
(0.000479425 0.000179078 -7.93003e-21)
(0.000710682 0.00144466 1.8475e-21)
(0.000743159 0.00142425 0)
(0.000324835 0.000510504 -7.3693e-22)
(0.000549082 0.00110152 -2.50968e-21)
(0.000688484 0.000974086 3.27838e-21)
(0.000275526 0.000324387 1.06515e-21)
(0.00087868 0.00133215 -1.30402e-21)
(0.000538303 0.000939334 1.4659e-21)
(0.000681128 0.00144023 4.47527e-21)
(0.000412523 0.00071192 -4.45266e-25)
(0.000437685 0.000738158 -2.02285e-21)
(0.000548222 0.000962431 -3.49199e-21)
(0.000608382 0.00122889 -4.25409e-24)
(0.000477001 0.000957929 0)
(0.00051644 0.00104897 -7.1384e-23)
(0.000436074 0.000887805 2.9639e-22)
(0.000445103 0.000905943 3.06418e-22)
(0.00045561 0.000927114 3.01065e-22)
(0.000589341 0.00119448 3.47213e-22)
(0.000798797 0.00119894 -1.01418e-21)
(0.000520689 0.00104461 4.73387e-24)
(0.000516355 0.000976248 0)
(0.00050596 0.000956822 -3.33681e-21)
(0.000578516 0.00101493 0)
(-2.22079e-05 0.000662666 1.38004e-21)
(0.000566581 0.00115097 1.13483e-21)
(0.000481239 0.000952087 -9.8545e-22)
(0.000522115 0.000367741 -1.32653e-21)
(0.000610652 0.00122352 1.05219e-21)
(0.000519143 0.00104955 1.30935e-21)
(0.000297003 0.00046393 -2.7591e-21)
(0.00054496 0.00109301 -9.9722e-22)
(0.000560524 0.00114913 -2.64207e-21)
(0.000405691 0.000957519 5.05947e-21)
(0.000424706 0.000999591 5.02788e-21)
(0.000414403 0.000977 2.06858e-21)
(0.000446707 0.000999848 -1.71656e-21)
(0.000456082 0.00101996 0)
(0.000588085 0.00123054 -3.28255e-21)
(0.000770363 0.00143249 1.7408e-21)
(0.000651203 0.000969224 -1.08559e-21)
(0.000691539 0.00134683 9.28564e-24)
(0.000473319 0.000936064 3.74639e-21)
(0.000623397 0.00113233 1.55509e-21)
(0.000535443 0.000974858 0)
(0.000558288 0.00101779 0)
(0.000545982 0.000994694 0)
(0.000611748 0.00105333 -1.75291e-21)
(0.000424287 0.000775756 -4.10353e-21)
(0.000666684 0.00111187 -7.3237e-22)
(0.000650036 0.00130459 8.44447e-22)
(0.000568099 0.00114497 1.19281e-21)
(0.000602628 0.00080545 -7.29288e-21)
(0.000481782 0.000976403 4.70099e-24)
(0.000502936 0.00101932 4.52375e-24)
(0.000491545 0.000996242 0)
(0.000716161 0.00142164 9.93759e-22)
(0.000591797 0.00102282 6.00116e-22)
(0.0004417 0.000970486 -1.67675e-21)
(0.000699734 0.00147356 -3.08462e-21)
(0.000613206 0.00115124 1.54737e-21)
(0.000670127 0.00147635 0)
(0.000578832 0.000906522 0)
(0.00051727 0.00105413 0)
(0.000434797 0.00075025 1.44393e-21)
(7.38225e-06 -1.67816e-05 -1.71144e-21)
(0.000498273 0.000995511 -9.50264e-22)
(0.000509791 0.00101852 0)
(0.000488406 0.000975742 0)
(0.000492743 0.000830096 0)
(0.000409169 0.000695037 -1.73311e-21)
(0.000573249 0.00108897 1.26109e-21)
(0.000404909 0.000956942 -2.15602e-21)
(0.000432935 0.000314108 2.20223e-21)
(0.000662855 0.00126437 2.29878e-21)
(0.000461497 0.000923787 -2.53507e-21)
(0.000574348 0.00101563 0)
(0.000492715 0.000933603 -1.05267e-21)
(1.035e-05 -3.16123e-05 -1.38941e-21)
(0.000671298 0.00145347 0)
(0.000526782 0.00105369 -2.35892e-21)
(0.000597554 0.00122495 5.91284e-21)
(0.000564024 0.00106369 -1.02393e-21)
(0.000543952 0.00112643 -1.33286e-21)
(0.000303603 0.000694215 1.88093e-21)
(0.000362041 0.000520351 -3.04212e-21)
(0.000588962 0.000838503 -4.23394e-21)
(0.000796318 0.000276932 0)
(0.000740579 0.0011414 0)
(0.000574118 0.00107022 -1.26521e-21)
(0.000642442 0.00119235 -2.42809e-21)
(0.000523433 0.000612764 7.53506e-21)
(0.000741056 -1.18839e-05 2.34988e-24)
(0.000579848 0.00114232 9.35043e-22)
(6.82865e-05 0.000651997 1.87182e-21)
(1.93866e-05 -7.84888e-06 -8.43594e-21)
(0.00080865 -2.42225e-05 -1.92538e-21)
(0.000564842 0.000995683 9.17306e-22)
(0.00054134 0.000953979 9.21745e-22)
(0.000552209 0.00097324 9.54282e-22)
(0.000481937 0.00115684 0)
(0.000409598 0.000279638 6.73264e-22)
(0.00058995 0.000256476 -2.26324e-21)
(0.000941861 0.00128345 -6.29536e-22)
(0.00026668 0.000544207 4.87813e-21)
(2.36614e-05 -3.39749e-06 3.2097e-21)
(0.000482575 0.000950963 -1.06647e-21)
(0.000463955 0.000970367 1.23808e-21)
(0.000834495 0.000168639 0)
(0.00045421 0.000966249 -1.53054e-21)
(0.000504848 0.00104354 -7.54378e-22)
(0.000715009 0.00126474 1.23328e-21)
(0.000258473 0.000292801 9.73295e-22)
(0.000615587 0.00121973 0)
(3.30166e-05 -3.04983e-06 -2.17005e-25)
(0.000586806 0.00122016 7.17205e-22)
(0.000689207 0.00122562 -1.05835e-21)
(0.00056611 0.0010476 7.41632e-24)
(0.000619769 0.00107422 2.1353e-22)
(0.000524183 0.00109113 -1.46562e-21)
(0.00095762 0.000173435 0)
(0.000470885 0.00095794 -3.36311e-23)
(0.000678372 0.00127383 7.79022e-22)
(0.000530941 0.00110372 2.41532e-21)
(0.000482679 0.000975339 1.17719e-23)
(0.000503917 0.00101811 1.16796e-23)
(0.00049248 0.000995112 1.07214e-21)
(0.000553882 0.00114894 -1.86026e-21)
(0.000563304 0.00128918 1.80147e-21)
(0.000745457 0.00139726 -4.40628e-21)
(0.000649473 0.00131259 -9.83199e-22)
(0.000569558 0.00114995 -1.86628e-21)
(0.000687733 0.000721746 7.55706e-22)
(0.000695199 0.00144182 8.37511e-22)
(0.000643018 0.000848666 -2.19335e-21)
(0.000465617 0.000959534 1.89646e-21)
(0.000640215 0.00124655 4.38527e-23)
(0.000719427 0.00144995 -3.77407e-21)
(0.000637306 0.001155 -1.41647e-21)
(0.000571406 0.00114888 1.08007e-21)
(0.000259975 0.000387904 -2.86547e-21)
(0.000401096 0.000823588 3.58731e-21)
(0.000573221 0.00103484 -1.06753e-21)
(0.000483312 0.00097668 0)
(0.000504543 0.00101948 0)
(0.000493108 0.000996463 0)
(0.000654218 0.00132874 0)
(0.00060604 0.00107035 0)
(0.000509255 0.000946612 2.15468e-21)
(0.000531315 0.000988335 2.14361e-21)
(0.000519481 0.000965883 2.23081e-21)
(0.00052062 0.00105027 9.98149e-22)
(0.000521608 0.000327282 5.37152e-21)
(0.00067537 0.00119617 -3.69769e-23)
(0.000708296 0.00148475 0)
(2.84067e-05 -3.51001e-06 -3.13854e-21)
(0.00054354 0.00109794 9.33276e-22)
(0.000219607 0.00049805 4.95197e-21)
(0.000569699 0.0011491 -2.01826e-21)
(0.000718671 0.00143802 1.8698e-21)
(0.000578479 0.000920324 -1.88917e-21)
(0.00103097 0.000101716 2.53179e-21)
(0.000608509 0.00122816 2.99805e-21)
(0.000631317 0.00120369 0)
(0.000595734 0.00122983 -6.361e-21)
(0.000516223 0.00120361 9.93509e-22)
(0.000537104 0.001045 9.11764e-22)
(0.0005114 0.0010531 -1.06889e-21)
(0.000473869 0.000963866 0)
(0.000538786 0.00109349 -3.10584e-21)
(0.000559214 0.00109156 -9.17097e-22)
(4.29513e-05 -8.90165e-07 0)
(0.00074624 0.00132171 -2.5717e-21)
(0.000624857 0.00122094 9.25457e-22)
(3.93203e-05 4.02193e-05 3.80685e-21)
(0.000487982 0.000964289 0)
(0.000557321 0.00101965 7.70049e-22)
(0.000715232 0.00143078 -1.01704e-21)
(0.000784637 0.000756425 -6.3417e-22)
(0.00057054 0.00106268 -1.44519e-21)
(0.000631372 0.00124107 -1.25886e-21)
(0.000671936 0.0014077 -1.03377e-21)
(0.000603539 0.00122727 0)
(0.00060871 0.00121779 -3.0089e-23)
(0.000735846 0.00129194 -2.12138e-21)
(0.0011184 9.11288e-05 -3.40394e-21)
(2.8651e-05 3.83142e-05 3.58224e-21)
(0.000472554 0.000958904 1.55505e-23)
(0.000751881 0.00118486 1.18044e-20)
(0.000737116 0.00143284 1.01017e-21)
(0.000636636 0.00118874 -8.11361e-22)
(4.39228e-05 -2.18687e-07 5.35574e-21)
(0.000751849 0.00143608 0)
(0.000763684 0.000522244 5.52628e-21)
(0.000696578 0.00143751 0)
(0.000442085 0.000987295 4.31453e-22)
(0.000484897 0.000931517 1.71142e-21)
(0.000778888 3.96478e-05 -1.79711e-21)
(0.000605849 0.000955018 -7.11997e-22)
(0.000478611 0.000964238 1.8572e-21)
(0.000808506 0.000659446 -1.27474e-21)
(0.000572609 0.000845423 -2.12732e-21)
(0.00073469 0.00139895 8.66676e-22)
(0.000719535 0.00119706 0)
(0.000474829 0.000947226 1.84424e-21)
(0.000596753 0.00106129 -1.69417e-23)
(0.000729836 0.00145827 -4.43821e-21)
(0.000609237 0.00105615 -1.5217e-21)
(0.000123056 0.000139067 -3.25806e-21)
(0.000577411 0.00101382 1.25001e-21)
(0.000913648 0.000209733 8.02701e-22)
(0.000569631 0.000740481 1.43301e-21)
(0.00068802 0.000705121 -2.61025e-21)
(0.0006353 0.00115094 1.28707e-21)
(0.000416142 0.000268143 -2.30808e-24)
(0.000708045 0.00143182 -1.90015e-21)
(0.000589839 0.000822589 2.20432e-21)
(0.00066275 0.000973255 1.38834e-21)
(0.000402452 0.000727807 -1.73314e-21)
(4.51853e-05 1.45461e-07 1.94044e-21)
(0.00029451 0.0003354 2.41226e-21)
(0.0005356 0.00094628 0)
(0.000321759 -0.000151175 -4.79896e-21)
(0.00072457 0.000805428 -5.26576e-21)
(0.000427023 0.000902715 0)
(0.000661159 -4.71329e-06 1.38993e-23)
(0.00028482 -0.000109045 -7.86515e-21)
(2.93514e-05 4.46589e-05 -3.42514e-21)
(0.000830681 0.000232644 -2.82594e-21)
(0.000357114 0.000485461 1.77455e-21)
(0.000728262 -3.98145e-05 -3.55488e-21)
(0.000950515 0.00078389 2.43171e-21)
(0.000389649 0.000810652 1.43662e-21)
(0.000429553 0.00020671 -4.78103e-22)
(0.000165652 0.000388515 0)
(0.00064867 0.000701585 -3.82734e-24)
(0.000785178 0.00126187 1.93876e-23)
(0.000470137 0.000179323 1.58479e-21)
(0.000749231 0.00125296 -4.13017e-22)
(0.000382781 0.000484312 -1.76207e-21)
(0.000122803 0.000143787 2.62963e-21)
(0.000494969 0.000986967 -2.43697e-21)
(0.000377254 0.000241627 0)
(0.000617352 0.000552322 0)
(-1.62304e-05 0.000618845 6.16795e-22)
(0.000608801 0.00105729 -2.54738e-21)
(0.000358264 0.000477574 -1.49259e-21)
(0.000971789 0.000338804 3.14733e-21)
(0.000867643 0.00121014 1.03857e-21)
(0.000636974 0.0011255 -1.3014e-21)
(0.000311095 0.000225863 -2.60118e-21)
(0.000439287 0.000815937 0)
(0.000686342 -3.01938e-05 6.24818e-21)
(0.000560322 0.00101786 -2.70953e-21)
(0.000628673 0.00113158 1.07024e-22)
(0.000349216 0.000310552 0)
(0.000394393 0.000508523 1.6775e-21)
(0.000609185 0.000278033 2.62798e-24)
(0.000739976 0.00144831 3.6275e-21)
(0.000985327 0.000179803 3.01226e-21)
(0.000593241 0.00101617 0)
(0.000765233 0.00119576 6.09858e-23)
(0.000672351 0.00105103 3.48116e-25)
(0.000569641 0.000889457 5.29897e-23)
(0.000594727 0.000928739 -9.38759e-23)
(0.000581276 0.000907617 5.47311e-23)
(0.000484061 0.000968927 -7.21523e-22)
(0.000505153 0.00101176 -7.18189e-22)
(0.000493804 0.0009887 -1.24864e-23)
(0.000341976 0.000755722 1.30054e-21)
(0.000565217 0.0010336 3.28795e-21)
(0.000409441 0.000878799 -1.76652e-23)
(0.000308544 0.000693979 2.52718e-21)
(0.000348251 0.00052997 7.78188e-22)
(0.000583045 0.000994968 0)
(0.000453383 0.000330681 2.36422e-21)
(0.000611159 0.00106384 -2.23513e-21)
(0.000381504 -4.9528e-05 1.61999e-26)
(0.000479535 0.000119416 0)
(0.000948108 -1.63389e-05 3.83078e-21)
(0.00067295 0.000907251 0)
(0.000462755 0.000926614 -3.62006e-21)
(0.00093816 0.000181058 0)
(0.00052804 0.000990024 -1.5516e-21)
(0.00077077 3.70879e-05 -1.73627e-21)
(0.0010774 0.000628655 3.25369e-21)
(0.000522942 0.000131954 1.0564e-23)
(1.74283e-05 7.63216e-06 -3.29035e-21)
(0.00075593 0.000377073 3.0369e-21)
(0.000322087 0.000223963 0)
(0.000172884 -2.76945e-05 -4.33852e-21)
(0.000601711 0.00105256 4.56534e-22)
(0.000212031 0.00072845 0)
(4.53368e-05 1.50428e-06 -1.87589e-21)
(0.000432835 0.000641895 1.3171e-22)
(0.000955859 0.000563475 1.88619e-21)
(0.000694795 0.000253428 3.49994e-21)
(0.000558766 0.000918939 5.0323e-21)
(0.000671403 0.00129903 1.77859e-21)
(2.35292e-05 -7.07228e-06 3.46216e-21)
(0.000585382 0.00103405 1.58584e-21)
(0.000548282 0.000994802 0)
(4.53247e-05 0.000277359 -1.5234e-21)
(0.000514336 0.00103985 -1.60136e-21)
(0.00041866 0.00120169 -1.79672e-22)
(0.000399172 0.0011575 5.31675e-23)
(0.000473454 0.00133965 -2.00745e-22)
(0.000360933 0.00105703 -1.2141e-22)
(0.000649041 0.000997808 -8.76425e-21)
(0.000566588 0.00156947 0)
(0.00129569 0.000888349 1.01211e-21)
(0.000930442 0.000580568 1.64943e-21)
(0.000747171 0.00129526 0)
(4.38568e-05 2.50783e-06 -5.60643e-21)
(0.000617307 0.00122465 0)
(0.000457618 0.000661485 9.24938e-22)
(0.000898263 0.000529018 8.85781e-22)
(0.00054266 0.00108552 5.06888e-24)
(0.000778296 0.00123502 -5.05834e-21)
(0.000461242 0.000307476 0)
(0.000723054 0.00125866 -2.85615e-21)
(4.38069e-05 3.73217e-05 0)
(3.43541e-05 3.7577e-06 2.40278e-21)
(0.000484003 0.000949064 0)
(0.000623727 0.00103471 -1.64274e-21)
(0.00105958 0.000911452 -1.99476e-21)
(0.00107637 0.000925038 1.77234e-21)
(0.000597002 0.00105183 -3.71602e-21)
(0.000319561 0.000809089 -9.58852e-23)
(0.000412365 0.00103597 -1.16973e-22)
(0.000359041 0.000890564 1.21877e-22)
(0.000366889 0.00092462 -1.03712e-22)
(0.000499314 0.0012256 -1.50483e-22)
(0.0008767 0.00110605 3.77028e-21)
(0.000566955 0.000989599 0)
(0.000187781 0.000484169 0)
(0.000365639 0.00116633 2.1924e-21)
(0.000256044 0.000513547 -5.52433e-21)
(4.24469e-05 -7.06792e-05 0)
(0.000438598 0.000886419 0)
(0.000620853 0.00108291 -1.39972e-21)
(0.000739984 0.00141915 7.01793e-22)
(0.000770149 0.00120101 -2.02134e-21)
(0.000654432 0.000992683 -1.15871e-21)
(0.000305687 0.000842805 2.86578e-25)
(0.000581201 0.00102934 1.13139e-23)
(0.000547939 0.000216745 -5.97444e-21)
(0.000847126 1.07181e-05 0)
(0.000722228 4.7359e-05 5.06827e-21)
(0.000123954 0.000335707 -1.58776e-21)
(0.00059266 0.00104027 5.93093e-22)
(0.000718797 -4.72785e-05 0)
(0.000187726 1.51331e-05 1.99243e-21)
(0.000279302 0.000470588 1.75623e-24)
(0.000587258 0.00101984 -6.38006e-22)
(0.000811586 -2.60758e-05 0)
(0.000459616 0.000459099 -5.07968e-21)
(0.000464475 0.00111934 0)
(0.000404093 0.000980169 0)
(0.00035448 0.000864405 0)
(0.000338578 0.000827095 0)
(0.000345872 0.000844284 0)
(0.000728529 0.000332114 1.20423e-21)
(8.93288e-05 0.000201977 -3.6758e-21)
(0.000315321 0.000245625 4.24112e-21)
(0.00050321 0.00140042 -1.84183e-22)
(0.000360468 0.00104341 -2.3645e-22)
(0.000368591 0.00106462 -2.44698e-22)
(0.000378308 0.00108927 -2.39403e-22)
(0.000434112 0.00123115 -2.69969e-22)
(0.000614896 0.00101339 5.08173e-21)
(0.000632825 0.00110058 0)
(0.000781493 0.000741112 2.79744e-21)
(0.000477294 0.00108636 1.6493e-21)
(0.000333314 0.00043766 2.63166e-21)
(0.000899212 0.000325624 2.04944e-21)
(0.000764219 0.00141878 1.91432e-21)
(0.00036854 0.000493608 -1.04086e-21)
(0.000530368 0.000792846 1.90275e-21)
(0.000581785 0.00100618 0)
(0.000952143 0.000854362 -3.31953e-21)
(0.000403319 0.000832884 -1.02723e-21)
(0.000398062 0.000779928 7.72679e-22)
(0.000109571 0.000505178 -1.49852e-21)
(0.000593434 0.00101561 1.17374e-21)
(0.000700961 0.000455559 -3.22208e-21)
(3.76278e-05 -2.62249e-07 2.2888e-21)
(0.00122755 2.22357e-05 0)
(0.00023147 0.000508558 5.8845e-24)
(0.000324402 0.0004755 1.58121e-21)
(0.000754373 0.00078633 -4.54231e-22)
(0.00176319 0.000294544 1.2513e-21)
(0.000174782 0.000762001 1.28924e-21)
(0.000451316 -6.26041e-05 0)
(0.000668019 0.000221341 0)
(7.81216e-05 -0.000115939 -6.44526e-22)
(0.000996996 0.000197569 3.42082e-21)
(4.1432e-05 4.30793e-06 2.09218e-25)
(0.000465652 0.000379183 4.18509e-24)
(0.000721713 0.00126835 -1.12554e-21)
(0.000475441 0.000971187 5.32663e-21)
(0.000510973 0.000981754 0)
(0.000518631 0.000788416 0)
(0.00036921 0.000737415 -3.74783e-21)
(0.000544671 -0.000143061 3.89477e-21)
(0.000599805 0.00106536 -1.2542e-21)
(0.000691407 0.000702655 -8.86198e-22)
(0.000536209 0.000796153 1.8825e-21)
(0.0012933 0.000113313 -6.05688e-21)
(0.000782663 0.000746837 -9.69797e-24)
(3.90691e-05 -3.53402e-06 -2.28193e-21)
(0.000672572 0.00100697 4.10748e-21)
(0.000484598 0.000986703 3.77861e-21)
(0.000858403 0.000221433 1.46014e-21)
(0.000820123 0.000266839 -1.89449e-21)
(0.000560407 0.000293504 4.8426e-21)
(0.000825285 0.00119896 5.24002e-22)
(0.000363252 0.000635786 0)
(0.000801199 0.000687125 -1.48703e-21)
(0.00063114 0.0011866 -5.53326e-21)
(0.000485122 0.000940721 -1.38279e-23)
(4.0117e-06 2.11515e-05 -2.42516e-21)
(0.0001668 0.000237763 -2.02357e-21)
(0.000442693 0.000664853 -1.03053e-20)
(1.0678e-05 8.38817e-06 0)
(0.000576762 0.00114278 8.6528e-22)
(0.000352047 0.000460915 2.87424e-21)
(0.000611064 0.00100897 3.77455e-21)
(0.000517809 0.00104993 -1.41551e-21)
(0.00092391 0.000833899 -8.01755e-21)
(0.000209605 -1.60182e-05 -1.52597e-24)
(0.000953977 0.000826471 1.17444e-23)
(0.000563624 0.000475535 -3.70728e-22)
(0.000600334 0.0010788 2.59588e-22)
(0.000728499 0.00142581 4.14739e-23)
(6.36716e-05 0.00100023 -2.06579e-21)
(0.000743044 0.00129867 -1.66004e-21)
(0.000575353 0.000889691 -1.76346e-21)
(0.0006122 0.00106334 3.90346e-21)
(0.000580778 0.00103854 -6.04239e-22)
(0.000683162 0.00100417 0)
(0.000377775 0.00023761 -2.09252e-21)
(0.00146548 0.00140556 -1.52468e-21)
(0.000385115 0.000841407 0)
(0.000969229 0.000296141 0)
(0.000783437 0.00050559 7.37343e-21)
(1.6454e-05 -2.78239e-05 6.92391e-21)
(0.000567433 0.00101831 0)
(0.000712512 0.000616407 7.43661e-22)
(0.000634148 0.000906303 1.37174e-21)
(0.000648877 0.000925869 6.65266e-22)
(0.000621463 0.000888167 0)
(0.000645256 0.00133067 -1.97483e-22)
(0.000474257 0.000108401 -2.24434e-21)
(0.000152308 1.96147e-05 4.77965e-22)
(0.000666347 0.000587518 -2.93482e-21)
(1.83689e-05 -4.30783e-06 -6.96988e-21)
(0.000589509 0.00110718 -2.07293e-21)
(0.000404366 0.0008738 4.80998e-23)
(0.000524805 0.00111683 -1.77264e-22)
(0.000462035 0.00097164 8.4435e-23)
(0.000465743 0.000997437 -1.59589e-22)
(0.000835123 0.00110044 6.71244e-21)
(0.00119891 0.00112115 2.97216e-23)
(0.000722259 0.000613167 -1.36748e-23)
(0.000665183 0.00101636 -1.01371e-20)
(0.00051264 0.000351268 -9.31628e-24)
(0.000154675 0.000132467 6.84198e-21)
(0.000489974 0.000505607 -1.33686e-20)
(0.000109487 0.000510622 9.53077e-22)
(7.87437e-05 0.000196473 5.64885e-21)
(0.000526877 0.000921541 -2.3508e-24)
(0.000262679 4.74399e-05 -1.51649e-21)
(0.000577355 0.000283072 9.01316e-21)
(0.000480547 8.45037e-05 -9.75024e-24)
(0.000325386 0.000904557 1.18849e-21)
(5.11591e-05 0.000380916 -3.50041e-21)
(0.000570987 2.40954e-05 -9.95795e-24)
(0.00125983 0.000260358 -2.49071e-21)
(4.34905e-05 -1.16952e-06 -1.31488e-21)
(0.0008692 0.000222097 4.56937e-21)
(0.000660108 0.000951943 -2.10533e-21)
(0.000740549 0.00128781 8.29166e-22)
(0.000187668 0.000571448 -1.23904e-21)
(0.000535958 0.00041738 7.95732e-22)
(0.000635855 0.00121987 2.00308e-21)
(0.000520679 0.00104561 2.79448e-21)
(0.000636302 -0.00035939 0)
(0.000566234 0.00130877 -9.99279e-22)
(0.00105966 0.000912311 0)
(-0.000147781 0.00114173 1.79838e-21)
(0.000865689 0.000526733 1.61194e-21)
(0.000357865 0.000745167 0)
(0.000446584 0.00102707 0)
(0.000654925 0.000822443 0)
(0.000445763 0.000955855 7.30214e-21)
(0.000193887 0.000710868 -2.28845e-21)