/*--------------------------------*- C++ -*----------------------------------*\
  =========                 |
  \\      /  F ield         | OpenFOAM: The Open Source CFD Toolbox
   \\    /   O peration     | Website:  https://openfoam.org
    \\  /    A nd           | Version:  7
     \\/     M anipulation  |
\*---------------------------------------------------------------------------*/
FoamFile
{
    version     2.0;
    format      ascii;
    class       volVectorField;
    location    "75";
    object      U;
}
// * * * * * * * * * * * * * * * * * * * * * * * * * * * * * * * * * * * * * //

dimensions      [0 1 -1 0 0 0 0];

internalField   nonuniform List<vector> 
591
(
(0.000831043 -2.09009e-05 1.21769e-18)
(0.000821901 -1.96054e-05 -6.63864e-19)
(0.000857149 -1.55421e-06 5.68231e-20)
(0.00086113 -1.35524e-05 -1.49093e-19)
(0.00084573 1.35105e-07 2.25554e-19)
(0.000802706 -4.05242e-05 -1.39612e-19)
(0.00056303 -0.000277888 8.06321e-19)
(0.0008036 4.39941e-06 2.09146e-18)
(0.00573345 0.00250411 9.87825e-19)
(0.000802593 -1.12124e-05 2.45408e-18)
(4.83921e-05 0.000167711 1.2182e-18)
(0.000933579 0.00138085 9.40731e-21)
(0.00079981 4.65321e-06 1.32514e-18)
(0.00159971 0.00239543 -7.87521e-19)
(0.00080341 2.16827e-06 -4.44802e-19)
(5.93188e-05 -0.000191753 2.37497e-22)
(0.000137723 0.000676432 7.04915e-19)
(0.000818389 6.96704e-05 -4.98185e-19)
(0.00192076 0.000393803 4.73866e-19)
(0.00135918 0.000252824 -2.4709e-19)
(0.000833231 -6.32288e-06 3.73199e-19)
(0.00340002 0.00655943 -8.15305e-20)
(2.64211e-05 6.87485e-05 2.70931e-19)
(0.000835614 -1.8355e-05 -4.51207e-19)
(1.00809e-05 -1.49089e-05 3.58908e-19)
(0.00077731 3.48656e-05 0)
(9.35132e-05 0.000472772 1.59957e-19)
(0.000550326 7.87502e-06 -1.78829e-19)
(0.000755958 4.71826e-05 1.14944e-18)
(0.000810349 5.57342e-05 5.88472e-19)
(5.56743e-05 -4.09518e-06 -4.57233e-24)
(3.01549e-05 -4.48149e-05 3.52157e-19)
(3.47018e-05 -2.95229e-06 -4.64198e-20)
(4.36727e-05 -1.20096e-05 0)
(5.27588e-05 -1.30818e-05 1.1314e-18)
(0.00117427 0.000133465 1.79916e-19)
(2.94981e-05 -5.09493e-06 4.47119e-20)
(0.000826072 3.32091e-06 3.09895e-23)
(2.62784e-05 4.25041e-05 2.66014e-19)
(8.57581e-06 -9.22119e-05 -8.54769e-19)
(0.000643515 -0.0002032 9.59783e-19)
(2.3509e-05 -6.31802e-06 4.54799e-20)
(0.000804287 4.70793e-06 -1.5808e-18)
(0.000831533 4.45002e-05 -6.91109e-19)
(1.58507e-05 -7.36298e-06 0)
(5.34396e-05 6.24029e-06 8.51821e-20)
(0.00134668 0.00450168 8.92929e-19)
(7.42917e-05 1.47973e-05 8.63572e-20)
(0.000801043 1.63297e-05 0)
(0.00038529 -0.000213454 6.77437e-19)
(0.000383478 0.000271968 5.11881e-21)
(0.000396048 4.56971e-05 -1.00372e-18)
(0.00634823 0.0109415 -7.68398e-19)
(0.00622494 0.0107967 1.52765e-20)
(0.0056144 0.0103795 1.45563e-18)
(0.000808181 3.27448e-05 0)
(6.57382e-05 2.97199e-05 0)
(0.000317782 9.97093e-06 1.62657e-23)
(6.13928e-05 9.66093e-06 -3.46438e-19)
(0.000814256 -7.94734e-06 0)
(0.000642261 2.88946e-05 3.17543e-19)
(0.000836495 1.34346e-05 2.20744e-18)
(0.000802852 3.21229e-05 -5.40142e-19)
(0.000799764 1.40862e-05 -3.1573e-19)
(0.00171192 0.000487816 5.42734e-19)
(0.000801279 1.84736e-05 -1.15221e-18)
(0.0008305 2.31863e-05 -5.24232e-19)
(7.84145e-05 -3.55867e-06 -1.73401e-19)
(0.00068888 0.00226185 0)
(0.000838958 4.07126e-05 0)
(0.00078131 1.79675e-05 -1.39261e-18)
(3.70636e-05 1.54092e-05 0)
(0.000289656 0.000269017 3.26824e-19)
(3.85425e-05 -1.6861e-05 0)
(4.00064e-05 -5.80843e-06 1.59463e-19)
(1.33216e-05 -4.24418e-05 -3.36651e-20)
(0.000793307 7.73213e-05 2.46893e-19)
(4.31095e-05 1.01517e-05 0)
(0.000803032 5.60619e-05 4.47412e-19)
(0.000774445 0.0002935 2.10714e-19)
(0.000963862 6.35938e-05 -3.97896e-20)
(4.19064e-05 2.22343e-05 -4.51835e-20)
(5.19072e-06 -2.02695e-05 0)
(0.000435534 0.00021535 1.70174e-19)
(2.83523e-06 2.11666e-05 0)
(0.000795657 3.93909e-05 -6.06728e-19)
(0.00061661 -0.000119937 0)
(6.30001e-05 -2.37212e-06 -1.74469e-19)
(2.74442e-06 -2.7823e-05 0)
(0.000829957 0.000241072 -3.4124e-19)
(3.35543e-06 -1.19549e-05 0)
(0.000425124 0.000322645 -1.3135e-23)
(0.000532981 0.000111032 0)
(0.000808923 4.40054e-05 -3.09039e-24)
(2.59218e-06 1.32539e-05 -4.21687e-20)
(0.000458129 -1.62767e-05 1.76341e-18)
(0.00102264 7.22245e-05 4.15998e-20)
(0.000821273 4.51176e-05 6.41223e-22)
(0.00074067 0.000657999 2.69482e-19)
(6.80778e-06 4.63868e-05 0)
(-1.20456e-06 -4.01211e-05 -3.12051e-19)
(-2.53976e-05 -6.81308e-05 -1.10103e-18)
(4.35995e-06 7.459e-05 -5.96328e-19)
(0.000614063 -2.26046e-05 0)
(8.45408e-06 9.90239e-05 0)
(0.000813337 2.73074e-05 2.18196e-18)
(0.000790403 2.6472e-05 1.53418e-18)
(0.000430604 -8.76057e-05 0)
(4.15165e-05 0.000215986 -8.95323e-19)
(4.5467e-08 0.000164614 4.96684e-19)
(6.03292e-05 0.000405883 6.25163e-19)
(0.000306739 7.89801e-05 -9.37077e-19)
(0.00080261 2.0147e-05 1.37333e-19)
(0.000260436 -4.80913e-05 5.31191e-19)
(4.22969e-06 3.05303e-05 0)
(2.09109e-05 0.000282374 -1.0939e-18)
(0.000321552 0.000322768 -1.61693e-19)
(4.91325e-07 -3.2746e-05 1.46518e-19)
(0.000670242 0.000812701 0)
(0.000369525 0.000386482 5.74375e-20)
(0.000817697 1.88373e-05 1.07017e-18)
(0.000799563 1.62827e-06 -2.72211e-18)
(5.60569e-06 -3.02029e-05 0)
(0.000669566 -3.50646e-05 -1.12307e-19)
(0.000321445 -0.000121554 1.24316e-18)
(0.00264088 0.000808698 -3.36352e-19)
(6.21843e-06 0.000128994 -6.13139e-19)
(5.7873e-06 0.000157722 1.61933e-18)
(0.000697343 2.30941e-05 -3.89877e-20)
(6.12628e-05 -1.42535e-05 -7.50121e-19)
(0.000807569 3.10834e-05 -3.87047e-19)
(0.000746317 2.64466e-05 -4.10415e-20)
(3.54217e-05 0.000328439 -5.96967e-19)
(0.000489748 6.30263e-05 -4.93899e-19)
(4.68576e-05 -3.58169e-06 1.56144e-19)
(0.000835245 3.14121e-05 -1.09366e-18)
(0.00155209 0.000237045 -1.13705e-18)
(4.50047e-06 6.00285e-05 4.964e-19)
(0.000810404 3.05134e-05 -4.9842e-19)
(0.000914889 0.000545241 -7.85052e-20)
(0.000146859 0.000787657 0)
(0.000585858 6.43427e-05 0)
(0.000276113 5.08304e-05 -1.60955e-18)
(6.20825e-05 5.68976e-05 -1.37401e-18)
(2.97941e-05 1.97582e-05 0)
(0.00424703 0.00740002 -1.01942e-20)
(0.00422539 0.00737197 3.16372e-20)
(0.00442761 0.00757476 -4.95826e-21)
(0.00420657 0.00773469 0)
(0.00419898 0.00760052 5.77124e-19)
(0.00424419 0.00740139 -9.19713e-20)
(0.00421028 0.0080423 4.84361e-19)
(0.00428945 0.007422 0)
(0.00420851 0.00853543 6.16642e-19)
(0.0043259 0.00745045 2.23856e-19)
(0.000826219 1.00761e-05 -1.37371e-18)
(0.000772418 5.50399e-05 0)
(0.00021288 4.94207e-05 1.27689e-19)
(4.88408e-05 1.4885e-05 8.71793e-20)
(7.6388e-05 4.29609e-05 6.79978e-19)
(0.00010384 3.89036e-05 -3.41648e-19)
(9.76194e-05 3.35913e-06 0)
(4.6476e-05 4.30858e-06 8.18324e-20)
(0.000206532 0.000129741 0)
(0.000164117 3.86302e-05 -5.24267e-20)
(0.00034439 0.000220583 -5.09223e-21)
(5.45638e-05 4.14311e-05 -4.37628e-19)
(8.8669e-05 2.52399e-05 -8.52421e-20)
(8.88891e-05 5.97211e-05 1.31187e-21)
(0.000257006 0.0003647 -6.66131e-19)
(0.000107779 0.00099879 0)
(4.10194e-05 5.11145e-05 3.43041e-19)
(0.000198939 0.00174944 0)
(0.000207945 0.000251636 7.04617e-19)
(3.60131e-05 -3.545e-06 1.11488e-19)
(0.000485689 0.000162976 -1.72291e-19)
(0.000764107 2.39889e-05 -1.924e-18)
(4.10828e-05 -1.40133e-06 4.55368e-24)
(0.000146011 2.1523e-05 2.24577e-19)
(0.00024464 8.91911e-05 -8.99275e-20)
(0.000881541 0.000702255 3.34919e-19)
(0.000723853 0.00163451 -9.23525e-21)
(0.000398616 0.00142224 -9.39389e-21)
(0.00102563 0.000546812 0)
(9.91812e-05 -1.70048e-05 1.11864e-18)
(0.000113276 1.28521e-05 -4.43085e-20)
(0.000459554 -0.000285557 -1.13606e-18)
(0.000816903 4.03598e-05 0)
(0.000180089 -2.80862e-06 3.63281e-19)
(0.000301049 0.00130717 0)
(0.0010824 0.000774845 -7.30151e-20)
(0.000826929 3.24236e-05 -1.86546e-19)
(7.40678e-05 -2.19682e-05 -2.99962e-19)
(0.000831883 0.000318325 -2.08034e-20)
(5.34399e-05 -2.13578e-05 -5.99461e-19)
(0.000226592 0.000173083 8.63825e-20)
(0.000230254 0.000307917 -3.4499e-19)
(0.000888529 0.000249112 0)
(0.000817909 5.29691e-05 0)
(0.000264188 0.000132888 1.76836e-19)
(0.000233612 -2.97427e-06 4.0615e-24)
(0.000184532 0.000203935 0)
(0.000298104 0.000651704 -5.55665e-21)
(0.000350992 -1.11283e-05 0)
(0.000375277 0.000599338 0)
(0.000107387 7.98519e-05 -1.34662e-21)
(0.000810242 2.9709e-05 -9.51275e-19)
(0.000807201 1.97661e-05 7.97891e-19)
(0.000127238 5.46378e-05 -1.49847e-19)
(0.000961753 0.000148691 8.50434e-20)
(0.00083817 4.19966e-05 3.33214e-19)
(0.000818292 2.89958e-05 -2.94099e-19)
(0.00102328 0.00041581 0)
(0.000440681 0.000116975 6.24394e-19)
(0.000901774 0.000321274 2.09125e-20)
(0.000580869 0.000154653 0)
(0.000272295 0.000446748 4.09615e-19)
(0.000261912 0.0002149 -8.44125e-20)
(0.00109702 0.000379525 -7.82088e-19)
(0.000627755 0.000103827 -1.7928e-19)
(0.000812663 7.34393e-05 -7.45711e-21)
(0.000842094 2.81545e-05 9.39894e-20)
(7.13725e-05 -8.70627e-05 -1.98127e-18)
(0.000740696 0.000381085 2.19221e-19)
(0.000672486 6.46944e-05 2.30618e-20)
(0.000709239 0.00027939 1.60515e-23)
(0.000732258 0.000460295 -4.09662e-19)
(0.000847606 2.62006e-05 9.06806e-20)
(7.07679e-05 7.76549e-05 0)
(0.000658181 0.000420909 -4.65889e-20)
(0.000183103 9.22482e-05 0)
(0.000374574 0.000501731 -2.64821e-19)
(0.000310302 0.000165232 0)
(0.000677182 0.0002049 3.55204e-19)
(0.000652016 0.000259734 -4.37224e-20)
(8.0845e-05 0.000102248 6.19119e-19)
(0.000877629 9.4275e-05 -1.6279e-18)
(5.61345e-05 2.08277e-05 2.57176e-19)
(0.000889204 7.04747e-05 -1.68566e-18)
(0.000842344 8.92802e-05 1.62994e-19)
(0.000810877 3.37084e-05 1.91012e-18)
(0.000817665 3.35004e-05 -1.32842e-19)
(0.000738772 7.1965e-05 0)
(0.000805933 2.39078e-05 8.95553e-19)
(0.00096284 0.000231727 -4.27074e-19)
(0.000776683 9.54793e-05 -4.83698e-19)
(0.000779739 0.000233082 -8.81165e-20)
(0.000208856 -0.000172364 -2.07773e-18)
(0.000750591 8.01562e-05 8.87468e-19)
(0.000641063 0.00059508 0)
(8.22545e-05 -0.000118414 0)
(0.00122353 0.000472508 4.97243e-19)
(0.000607736 -6.06699e-05 -3.26595e-18)
(0.00134673 0.000415544 5.76441e-19)
(0.00124486 0.000717713 -6.38819e-20)
(0.000813148 3.12637e-05 -2.12312e-19)
(0.000837611 6.70348e-05 -1.42577e-18)
(0.000814912 2.66335e-05 1.58774e-18)
(0.00081706 2.61589e-05 9.78161e-20)
(0.000670883 0.000352741 -4.40374e-20)
(0.00010089 0.000120722 6.05048e-24)
(0.000754373 -3.74365e-05 2.65054e-19)
(0.000214791 -0.000262773 -7.32125e-19)
(0.000626872 0.000185451 0)
(0.000712658 4.7043e-05 9.90332e-20)
(0.000699838 9.7914e-06 -3.80785e-19)
(0.000390789 0.000169116 3.93336e-20)
(0.000808102 0.000507224 -1.65464e-19)
(0.000147798 7.27577e-05 3.26897e-25)
(0.000813217 0.000412445 0)
(0.000981739 0.000317519 4.15744e-20)
(0.000759591 -7.27795e-05 -6.16124e-19)
(0.000349686 0.000102828 4.97776e-19)
(0.000904151 0.0004264 0)
(4.7984e-05 3.01331e-05 1.33702e-19)
(0.000486054 0.000266291 2.13935e-19)
(0.000517052 -0.000155864 -7.09449e-19)
(0.000122796 -0.000165224 -1.0563e-18)
(0.000824883 3.42851e-05 -4.86765e-19)
(0.000772407 -8.19929e-05 -1.94296e-19)
(0.000547714 0.000729574 -1.1743e-18)
(0.000849173 4.71603e-05 -6.74344e-20)
(0.000614347 -2.01629e-05 1.27848e-18)
(0.000706782 9.9575e-05 2.27764e-20)
(0.000534274 0.000208253 -1.65673e-19)
(2.94649e-05 -2.10422e-05 -8.75784e-20)
(0.000163754 -4.7818e-05 2.40591e-18)
(1.6821e-05 6.80884e-07 -1.9483e-19)
(0.000831074 0.0001147 3.63719e-19)
(0.000667304 0.000135956 0)
(0.000182911 -9.17725e-05 -1.04807e-18)
(0.000118965 -2.04415e-05 3.12865e-19)
(0.000104873 -3.72788e-05 1.3078e-23)
(0.000800585 0.000105792 -3.19239e-19)
(0.000151209 -1.50793e-05 0)
(0.000587094 0.000241188 0)
(0.000111293 0.000328137 -3.62826e-19)
(0.000862536 0.000100642 2.10027e-18)
(1.37043e-05 1.01019e-06 0)
(0.000880853 5.31857e-05 0)
(4.15935e-05 -2.57235e-05 0)
(0.00081544 4.67344e-05 -4.46782e-21)
(0.000788609 -4.21585e-05 0)
(0.00425993 0.00740637 8.06775e-20)
(0.00436171 0.00748627 1.43313e-19)
(0.000843856 -8.1289e-06 0)
(0.00078909 -4.523e-05 8.12148e-19)
(0.000152436 0.000122624 1.49198e-19)
(0.000854728 6.79113e-05 8.07628e-19)
(0.000129119 9.95378e-05 2.34379e-20)
(0.000782035 -2.73374e-05 6.24353e-19)
(3.38369e-05 9.22932e-06 0)
(2.69566e-05 -1.30822e-05 -4.48449e-20)
(0.000898898 4.89381e-05 -4.8652e-19)
(3.12656e-05 -3.12381e-05 -6.69757e-19)
(0.000758825 0.000122511 -4.23208e-20)
(0.00016854 0.000160418 -1.88086e-19)
(0.000814622 2.88172e-05 0)
(0.00468248 0.00815355 8.99948e-22)
(0.000182866 0.00078877 3.3347e-19)
(0.000112938 -6.06482e-05 -9.14465e-19)
(5.84431e-05 -3.50716e-05 -1.16868e-18)
(0.000632013 1.36826e-05 1.89832e-20)
(0.000581813 0.000407387 0)
(0.000419938 0.000443441 -2.56313e-19)
(8.00129e-05 -6.10896e-05 1.18362e-18)
(0.000590426 1.54499e-07 7.70101e-20)
(4.08203e-05 1.68159e-06 4.07067e-19)
(0.000705164 -5.04613e-05 1.17154e-18)
(0.000811331 3.26613e-05 -6.01675e-19)
(6.15882e-05 -5.50518e-05 1.7092e-18)
(0.000842379 -2.76732e-05 -5.77344e-24)
(0.000608554 6.78441e-06 -3.7643e-20)
(0.000868954 7.00861e-05 0)
(0.00084063 4.14185e-05 0)
(0.00591739 0.007241 2.59599e-19)
(1.74919e-05 -2.41485e-06 -1.19576e-19)
(0.000119777 -0.000104666 7.7294e-19)
(0.000726775 0.000117366 -6.96386e-19)
(2.04462e-05 2.67009e-08 2.01505e-19)
(0.000626898 -3.57004e-05 -7.2376e-19)
(0.000745103 3.68259e-05 1.55793e-18)
(0.000705959 0.000159325 -3.55411e-19)
(0.000807677 -1.25349e-05 3.60709e-19)
(7.35005e-05 -3.46483e-05 1.11592e-18)
(0.000800181 6.83561e-06 -3.22666e-19)
(0.000867678 4.09042e-05 0)
(0.000542631 0.000303109 4.20986e-20)
(0.000858815 5.09286e-05 -9.46627e-19)
(1.81016e-05 2.50748e-06 9.11228e-19)
(0.000854484 4.58098e-05 9.6552e-19)
(0.000858018 1.16669e-05 -9.60118e-19)
(0.000752689 -1.96123e-06 -5.69133e-19)
(0.000525385 -7.43332e-05 -5.25604e-19)
(0.00432885 0.00745265 2.46975e-19)
(0.00422352 0.0075292 -2.53571e-19)
(0.00422136 0.00758719 2.66781e-19)
(0.00425578 0.00741054 1.97906e-19)
(0.000844862 -2.93397e-05 1.44123e-19)
(0.00447571 0.00751238 0)
(0.00440323 0.00751683 -3.86769e-19)
(2.81589e-05 -1.27772e-07 -9.98033e-19)
(0.00417056 0.00746934 -6.3348e-20)
(0.0041459 0.00743243 -2.2145e-19)
(0.00602966 0.0106061 0)
(0.0065405 0.0111875 3.71272e-20)
(0.0060096 0.0105758 0)
(0.0065562 0.0112111 1.30811e-19)
(0.00599696 0.0105998 2.69636e-19)
(0.00659288 0.0112279 1.24526e-20)
(0.00593563 0.0106126 -7.76614e-19)
(0.00662314 0.0111469 8.14248e-21)
(0.00390374 0.00919944 -1.90821e-19)
(0.00418685 0.00748841 3.89929e-21)
(0.00423808 0.0075526 7.93382e-20)
(0.00415038 0.00743472 4.11914e-20)
(0.000881193 0.000192589 4.46709e-20)
(9.67669e-06 1.3744e-06 0)
(0.000706485 -0.000118686 0)
(0.00066288 5.18889e-05 0)
(0.00244391 0.00111055 4.23539e-21)
(0.000755559 -3.15418e-05 1.72569e-19)
(3.93535e-05 5.4537e-06 4.54027e-20)
(9.46651e-06 -2.6317e-05 1.65304e-18)
(0.000852401 1.30858e-05 0)
(2.71206e-05 1.22208e-05 -1.91715e-19)
(0.00013996 0.00022204 0)
(1.67486e-05 -9.87317e-07 0)
(1.35164e-05 -1.27464e-06 0)
(0.000824988 0.000140836 1.13732e-20)
(0.000810787 -1.76623e-05 1.79407e-19)
(3.68582e-05 0.000271094 -1.57175e-23)
(0.000157531 0.000271995 -1.84181e-18)
(0.000603912 0.000328746 -8.56943e-20)
(0.000897154 0.000109945 6.0076e-19)
(0.000649996 -0.00020627 6.73414e-19)
(0.00036269 0.00111009 0)
(0.000473319 0.000575227 2.71509e-18)
(9.00193e-05 0.000144721 -1.803e-18)
(2.09826e-05 2.60006e-09 0)
(0.000821615 -5.89413e-05 3.63488e-20)
(1.59645e-05 3.53857e-05 1.64439e-18)
(0.000898665 3.2728e-05 2.7116e-19)
(-1.98738e-05 1.80361e-05 3.80787e-18)
(0.00092946 4.00574e-05 -2.69027e-19)
(0.0013475 0.000150984 7.47151e-19)
(3.41996e-05 -1.05235e-05 8.25662e-20)
(3.57067e-05 3.54527e-06 -8.59039e-19)
(5.0729e-05 0.000141408 0)
(0.000910995 8.13336e-05 5.98505e-19)
(0.000494387 0.000367951 2.37129e-19)
(0.000656181 1.77958e-05 -3.89117e-20)
(0.000779083 -3.0239e-06 2.57301e-19)
(0.000735474 -0.000175128 0)
(0.00632139 0.0108964 -1.68025e-19)
(0.00637914 0.0109741 4.05745e-19)
(0.00616042 0.0107312 -6.18319e-19)
(0.00650156 0.0111329 -8.09609e-20)
(3.40517e-05 0.00011802 8.00491e-19)
(0.000921213 6.00511e-05 1.45475e-22)
(0.00641169 0.0110065 -3.86377e-19)
(0.00628235 0.0108461 5.48355e-19)
(0.00608054 0.010673 -4.16749e-19)
(0.00652205 0.0111653 -6.81234e-20)
(8.0119e-05 0.000504537 -2.01802e-20)
(7.75954e-05 -0.00020183 -7.93104e-19)
(0.000668225 -2.07591e-05 -7.64953e-19)
(0.000724816 0.000220184 0)
(0.00080012 4.0635e-07 0)
(0.000186453 0.000390111 3.36279e-19)
(0.000598465 0.000514331 -5.41839e-19)
(9.22155e-06 -1.57033e-06 1.78387e-19)
(0.000200955 0.000467221 -7.38352e-19)
(0.00101117 0.000973325 -1.12677e-19)
(0.000744372 0.000165944 0)
(0.000788609 0.000183875 1.31015e-19)
(0.0063541 0.00588023 1.13129e-18)
(0.000739616 0.00112802 8.26536e-20)
(3.83464e-05 3.7664e-05 -7.44654e-20)
(0.00081002 1.30871e-05 0)
(0.000874267 2.57699e-05 -3.56892e-20)
(3.40042e-05 3.12015e-06 -1.96703e-19)
(2.94398e-05 4.52243e-06 1.92985e-19)
(0.000833234 1.81574e-05 5.37196e-19)
(0.000973363 0.000109965 6.58211e-19)
(0.000563398 3.95078e-05 0)
(0.000222729 -0.000296932 -3.98056e-19)
(0.000915655 0.00014665 3.89581e-19)
(1.14753e-05 -5.9676e-05 2.03109e-19)
(0.0014509 0.000443189 -2.58157e-18)
(0.000592417 -8.30292e-06 0)
(0.000792195 0.000143822 3.75453e-19)
(9.45562e-05 0.00039448 0)
(0.00118797 0.00816149 4.62135e-19)
(0.000490708 0.000499662 -1.22448e-18)
(0.000541406 0.00100984 -1.83744e-19)
(0.000881699 1.78063e-05 -1.46049e-19)
(1.2913e-05 2.50443e-05 0)
(0.000947982 7.73217e-05 6.11674e-19)
(0.00410632 0.00739549 8.14045e-20)
(0.00417142 0.00747382 4.72908e-20)
(0.00449948 0.00751509 4.53985e-19)
(0.00444469 0.00754103 -3.29286e-19)
(0.0064755 0.0111099 8.10384e-20)
(0.00391482 0.00714603 -9.72573e-22)
(0.00550783 0.00779748 -5.64658e-19)
(0.00409785 0.00737165 5.21788e-21)
(0.00518844 0.00785724 5.11588e-19)
(0.00407965 0.00734011 -4.87003e-20)
(0.00495347 0.00771659 0)
(0.00408495 0.00736452 -8.56286e-20)
(0.00474211 0.00758776 4.92432e-19)
(0.00409822 0.00737613 8.74888e-20)
(0.00457468 0.00752736 0)
(0.00428348 0.00742058 1.39715e-19)
(0.00423956 0.00759878 5.80301e-19)
(0.00446712 0.00752645 -5.55199e-19)
(0.00438745 0.00750441 3.71316e-19)
(0.00422809 0.00752512 2.87794e-19)
(0.00643088 0.0110432 -4.97628e-21)
(0.00411778 0.00740161 3.11515e-20)
(0.00645896 0.0110731 0)
(2.37724e-05 5.73864e-06 -1.89853e-19)
(0.00199993 0.00654389 2.28248e-19)
(0.000838859 -4.96653e-05 1.09736e-19)
(0.000856146 8.35325e-06 0)
(1.50704e-06 1.2758e-06 -3.99097e-19)
(-9.30929e-06 -0.000128296 6.91911e-19)
(2.42758e-05 5.6456e-05 2.08891e-18)
(0.000828446 0.000180782 -9.00686e-20)
(0.000800419 9.12208e-06 7.06364e-19)
(1.283e-06 -1.05221e-06 3.09978e-19)
(1.82049e-05 -3.35558e-05 -1.84559e-18)
(0.000762695 2.73705e-05 1.63145e-19)
(0.000868037 0.000123933 -3.07976e-20)
(0.000800511 -8.65209e-06 1.4813e-19)
(0.000416154 0.000679965 0)
(4.06379e-05 -0.000145711 1.15143e-18)
(0.000864756 7.44274e-06 1.52511e-19)
(1.98108e-05 2.36377e-05 0)
(0.000115623 0.000559815 -6.31211e-19)
(0.00060842 0.000592965 1.31788e-18)
(0.000326543 0.000752036 0)
(0.000801334 -1.66053e-05 0)
(0.000801042 2.94254e-06 1.17494e-18)
(1.73846e-05 4.88301e-05 -3.51481e-18)
(1.64731e-05 7.07935e-06 3.73608e-19)
(0.000116236 0.000144516 0)
(4.4227e-05 -4.08163e-05 0)
(6.16723e-05 0.000112074 2.00991e-19)
(0.000936643 0.000188255 3.50419e-19)
(0.000799999 1.55116e-05 -1.39689e-18)
(2.2685e-05 3.29147e-05 0)
(0.000453682 8.95346e-06 -6.04106e-20)
(0.000801077 3.82798e-05 -1.56339e-19)
(0.000842493 3.7199e-05 1.06379e-18)
(0.000257572 0.000542161 6.32201e-19)
(0.000876264 0.000156542 0)
(1.84162e-05 -2.33946e-05 5.38627e-19)
(2.43642e-06 -5.47721e-06 -3.19955e-19)
(0.000974756 3.17997e-05 0)
(0.00103588 0.00226556 0)
(0.000934098 -4.50235e-06 0)
(0.00100199 0.000207202 4.27163e-19)
(0.000817515 -3.44895e-05 -2.84016e-19)
(0.00093149 0.000109335 -6.84749e-19)
(0.000800689 3.36334e-06 0)
(4.18556e-05 6.84475e-05 -1.71559e-19)
(0.000174382 0.000326763 1.08109e-18)
(0.000799282 1.49349e-05 -1.93277e-23)
(0.0010919 0.000209636 -6.68894e-19)
(0.00109009 0.000125995 0)
(2.4741e-06 6.07003e-06 2.51021e-19)
(1.81128e-05 -1.51334e-05 -1.94307e-19)
(0.00057265 4.04263e-05 6.94984e-21)
(8.45423e-06 -7.84005e-05 0)
(0.00106265 0.000254544 9.50008e-19)
(0.00502877 0.00974889 -2.82993e-19)
(0.00312128 0.00961819 1.27239e-18)
(3.93055e-05 -0.000104669 -1.91333e-19)
(5.36306e-05 -7.50368e-05 1.85944e-18)
(0.00119092 0.000247394 1.67331e-19)
(0.00132776 0.00107941 2.34076e-19)
(0.000811345 6.32958e-07 -7.32789e-19)
(0.000197672 0.000951435 -2.38235e-19)
(0.000815305 0.000936603 -2.18575e-19)
(0.000800064 -2.65636e-06 0)
(8.42326e-05 0.000623738 0)
(9.54105e-05 0.000281984 -3.95102e-23)
(0.000719101 -4.32241e-05 -1.67815e-23)
(0.0008231 6.62041e-05 1.52604e-19)
(0.00263078 0.00206256 -1.23121e-18)
(0.00175967 0.00923821 -1.17199e-19)
(0.000834681 5.59026e-05 4.92223e-19)
(0.00632718 0.00404866 -1.75947e-19)
(0.00672111 0.0115578 -1.36392e-20)
(0.00473412 0.00784384 4.92595e-21)
(0.000802347 1.35786e-05 -2.19338e-18)
(0.000837667 7.52111e-06 5.5596e-24)
(8.4963e-06 -7.40444e-06 -3.48007e-19)
(4.63646e-05 8.93638e-05 -3.49267e-19)
(6.60474e-05 0.000269546 8.75211e-19)
(1.08659e-05 1.59756e-05 4.90392e-19)
(8.9654e-05 0.000229882 3.69752e-19)
(0.000822227 2.26483e-05 0)
(0.00534812 0.00949245 1.95076e-20)
(0.00153454 0.000635846 -2.61205e-20)
(0.000819862 3.57962e-05 3.60165e-19)
(3.26481e-05 -8.16444e-05 0)
(0.00184782 0.000743972 5.45968e-19)
(9.29463e-06 7.44181e-06 -2.70146e-19)
(3.36599e-05 2.82085e-05 9.71794e-20)
(0.00132873 0.00139651 6.3657e-19)
(0.000736576 4.83813e-05 1.83097e-19)
(4.69991e-06 -1.56424e-06 -1.70199e-19)
(0.00206188 0.00155954 -1.05582e-18)
(0.000126503 0.000178476 -8.18723e-19)
(0.0039214 0.00848721 -1.0908e-18)
(5.30111e-06 1.52942e-06 8.81402e-20)
(0.000129921 -0.000109546 -1.2569e-18)
(4.73498e-05 -5.72617e-05 4.05635e-20)
(0.00152563 0.00098305 0)
(0.00103967 0.000138551 -4.04784e-22)
(0.000453699 0.000848914 -4.02024e-20)
(0.000802854 2.74832e-05 -2.34071e-19)
(8.7104e-05 0.000184663 7.36041e-19)
(3.06536e-05 -6.10826e-05 4.04e-19)
(1.82599e-05 1.50865e-05 -9.47076e-20)
(3.13774e-05 9.20041e-05 -3.2028e-19)
(0.000207477 -0.000246651 -5.45139e-19)
(0.00325047 0.00346059 2.87377e-21)
)
;

boundaryField
{
    back
    {
        type            empty;
    }
    ingreso
    {
        type            fixedValue;
        value           uniform (0.0008 0 0);
    }
    salida
    {
        type            zeroGradient;
    }
    front
    {
        type            empty;
    }
    defaultFaces
    {
        type            noSlip;
    }
}


// ************************************************************************* //
