/*--------------------------------*- C++ -*----------------------------------*\
  =========                 |
  \\      /  F ield         | OpenFOAM: The Open Source CFD Toolbox
   \\    /   O peration     | Website:  https://openfoam.org
    \\  /    A nd           | Version:  7
     \\/     M anipulation  |
\*---------------------------------------------------------------------------*/
FoamFile
{
    version     2.0;
    format      ascii;
    class       volScalarField;
    location    "67.5";
    object      p;
}
// * * * * * * * * * * * * * * * * * * * * * * * * * * * * * * * * * * * * * //

dimensions      [0 2 -2 0 0 0 0];

internalField   nonuniform List<scalar> 
591
(
0.000123882
0.0001239
0.000123905
0.000123858
0.00012386
0.00012393
0.000123925
0.000123893
0.000116982
0.00012391
0.000124088
0.000122825
0.000123899
0.000119728
0.000123893
0.000123941
0.000123871
0.000123936
0.000121947
0.000123272
0.000123873
-3.52614e-06
0.000124086
0.000123876
0.000124044
0.000123897
0.000123996
0.000124004
0.00012391
0.000123918
0.000124063
0.000124039
0.000124058
0.000124057
0.000124059
0.000123384
0.000124054
0.000123876
0.000124081
0.000124
0.000123964
0.000124051
0.000123905
0.000123926
0.000124048
0.000124068
0.000119242
0.000124072
0.000123909
0.000124028
0.000124015
0.000124048
2.39382e-05
3.05808e-05
4.78338e-05
0.000123904
0.000124076
0.000124064
0.000124069
0.000123883
0.00012397
0.0001239
0.000123899
0.000123948
0.000122566
0.000123901
0.000123903
0.000124066
0.00012072
0.000123914
0.000123909
0.000124073
0.000124041
0.000124052
0.000124058
0.000124034
0.000123878
0.00012407
0.000123879
0.000123814
0.000123658
0.000124075
0.000124035
0.000124013
0.000124082
0.00012389
0.000123981
0.000124064
0.000124027
0.00012378
0.00012404
0.000123984
0.000124001
0.000123883
0.00012408
0.000124035
0.000123588
0.000123487
0.000123643
0.000124086
0.000123994
0.000123911
0.00012409
0.000123856
0.00012409
0.000123901
0.000123899
0.000124039
0.000124081
0.000124085
0.000123972
0.000124061
0.000123916
0.000124066
0.000124084
0.000124063
0.000124017
0.000124013
0.000123576
0.000123984
0.000123902
0.000123896
0.000123977
0.000123883
0.000124054
0.000120196
0.000124089
0.000124065
0.000123655
0.000124059
0.000123892
0.00012358
0.000124025
0.000124021
0.000124062
0.000123907
0.000122619
0.000124088
0.000123895
0.000123574
0.000123639
0.000123988
0.00012407
0.000124081
0.000124076
7.6158e-06
3.67815e-06
2.07085e-06
3.81505e-05
3.66911e-05
5.66049e-06
3.83004e-05
1.57383e-05
3.72803e-05
1.78044e-05
0.000123901
0.000123892
0.000124077
0.000124071
0.000124078
0.000124077
0.00012407
0.000124066
0.000124076
0.000124075
0.000124039
0.000124079
0.000124074
0.000124081
0.000124018
0.000123389
0.000124081
0.000122117
0.00012406
0.000124062
0.000124009
0.000123911
0.000124062
0.000124075
0.000124073
0.000123487
0.000122468
0.000123045
0.000123441
0.000124066
0.000124072
0.000123987
0.000123873
0.000124067
0.000122962
0.000123298
0.000123874
0.00012406
0.000123756
0.000124054
0.000124069
0.000124043
0.000123725
0.000123864
0.000124067
0.000124074
0.000124072
0.000123868
0.000124055
0.000123865
0.000124083
0.000123895
0.000123894
0.000124079
0.000123688
0.000123865
0.000123905
0.000123541
0.00012403
0.000123687
0.000123974
0.000123984
0.000124058
0.000123455
0.000123963
0.000123857
0.000123859
0.000124035
0.000123794
0.00012395
0.000123863
0.000123773
0.000123851
0.000124084
0.000123839
0.00012408
0.000123927
0.000124057
0.000123906
0.000123906
0.000124086
0.0001238
0.000124073
0.00012379
0.000123836
0.0001239
0.000123879
0.000123916
0.000123902
0.000123671
0.000123876
0.000123827
0.000124044
0.000123895
0.000123744
0.00012403
0.000123297
0.000123851
0.000123191
0.000123072
0.000123886
0.000123852
0.000123888
0.000123885
0.000123852
0.000124084
0.000123931
0.000124016
0.000123941
0.000123935
0.000123948
0.000124036
0.000123687
0.00012408
0.000123724
0.000123614
0.000123919
0.000124056
0.000123636
0.000124076
0.000123983
0.00012401
0.000124034
0.00012391
0.00012388
0.000123709
0.000123846
0.000123873
0.000123925
0.00012398
0.000124047
0.000124064
0.00012407
0.00012383
0.000123934
0.000124057
0.000124064
0.00012406
0.000123854
0.000124071
0.000123945
0.000124052
0.000123817
0.000124072
0.000123805
0.000124049
0.00012394
0.000123881
1.164e-05
2.19077e-05
0.000123834
0.000123906
0.000124082
0.000123836
0.000124083
0.000123917
0.000124072
0.00012405
0.000123789
0.000124044
0.000123874
0.000124079
0.000123908
-2.0973e-07
0.000123768
0.000124055
0.00012405
0.00012375
0.000123895
0.000123935
0.000124045
0.000123808
0.000124066
0.000123952
0.000123901
0.000124043
0.000123854
0.000123782
0.000123814
0.000123911
4.74622e-05
0.000124061
0.000124044
0.0001239
0.000124067
0.00012398
0.000123923
0.000123904
0.000123892
0.000124053
0.000123918
0.000123826
0.000123946
0.00012383
0.000124066
0.000123838
0.000123893
0.000123929
0.000124014
1.9869e-05
2.73268e-05
3.42864e-05
9.63741e-06
0.000123877
3.30458e-05
2.59954e-05
0.000124063
1.90701e-05
1.70264e-05
3.81764e-05
7.57425e-06
3.9928e-05
5.60308e-06
4.08222e-05
3.68745e-06
4.28051e-05
1.87489e-06
3.63917e-05
2.31927e-05
2.94427e-05
1.49893e-05
0.000123756
0.000124074
0.000123944
0.00012395
0.000120891
0.000123997
0.000124069
0.00012404
0.000123845
0.000124074
0.000124074
0.000124055
0.000124052
0.000123818
0.000123893
0.000124058
0.000124064
0.000123901
0.000123774
0.000123837
0.000123406
0.000123857
0.000124087
0.000124059
0.000123905
0.000124082
0.00012375
0.000123928
0.000123709
0.00012286
0.000124054
0.000124065
0.000124086
0.000123762
0.000123944
0.000123708
0.000123917
0.000123907
2.60369e-05
2.18725e-05
3.30275e-05
1.16161e-05
0.00012409
0.000123756
1.98155e-05
2.8248e-05
3.55935e-05
9.58605e-06
0.000123905
0.000124006
0.000123858
0.000123868
0.000123895
0.000124023
0.000123816
0.00012405
0.000123988
0.000123098
0.000123872
0.000123839
5.93435e-05
0.000123222
0.000124079
0.000123886
0.000123784
0.000124068
0.000124071
0.000123869
0.000123669
0.000123897
0.000123963
0.00012375
0.000124025
0.00012291
0.000123833
0.000123848
0.000124032
0.000100873
0.000123881
0.000123484
0.000123817
0.00012408
0.000123718
1.08938e-05
2.111e-05
3.53583e-05
2.81838e-05
1.36594e-05
5.39165e-08
4.20686e-05
2.6888e-06
4.01479e-05
4.76061e-06
3.94067e-05
6.81312e-06
3.86141e-05
8.85551e-06
3.72804e-05
1.36714e-05
3.17195e-05
3.05759e-05
2.39322e-05
2.52711e-05
1.77615e-05
1.29358e-05
1.57045e-05
0.000124073
0.000102408
0.000123876
0.00012381
0.000124077
0.000123969
0.000124083
0.0001238
0.00012393
0.000124045
0.00012404
0.000124048
0.000123802
0.0001239
0.000123799
0.000124007
0.000123839
0.000124078
0.000123945
0.000123777
0.000123781
0.000123911
0.000123903
0.000124084
0.000124075
0.000124084
0.000124044
0.000124087
0.000123717
0.000123898
0.000124079
0.000123844
0.000123972
0.000123902
0.00012394
0.000123783
0.000124044
0.000124043
0.000123357
0.000121371
0.000123086
0.00012363
0.000123899
0.000123729
0.00012391
0.000124084
0.000124047
0.000123903
0.000123518
0.000123498
0.000124079
0.000124046
0.000123918
0.000124013
0.000123556
5.83094e-05
4.01064e-05
0.000124018
0.000124035
0.000123398
0.000122744
0.000123884
0.000123625
0.000123372
0.000123895
0.000123797
0.000124067
0.000123928
0.000123956
0.000119001
5.44659e-05
0.000123925
8.12243e-05
1.86125e-06
-3.81535e-07
0.000123894
0.000123864
0.000124045
0.000124086
0.000124075
0.000124078
0.000124078
0.00012388
-2.30775e-06
0.000122827
0.000123918
0.000124025
0.000122007
0.000124077
0.000124077
0.000122285
0.000123993
0.000124047
0.000121692
0.000124081
7.63391e-05
0.000124075
0.000123708
0.000124039
0.000122373
0.000123606
0.000123663
0.000123927
0.000124083
0.000124032
0.000124076
0.000124088
0.0001239
0.000116174
)
;

boundaryField
{
    back
    {
        type            empty;
    }
    ingreso
    {
        type            zeroGradient;
    }
    salida
    {
        type            fixedValue;
        value           uniform 0;
    }
    front
    {
        type            empty;
    }
    defaultFaces
    {
        type            zeroGradient;
    }
}


// ************************************************************************* //
