/*--------------------------------*- C++ -*----------------------------------*\
  =========                 |
  \\      /  F ield         | OpenFOAM: The Open Source CFD Toolbox
   \\    /   O peration     | Website:  https://openfoam.org
    \\  /    A nd           | Version:  7
     \\/     M anipulation  |
\*---------------------------------------------------------------------------*/
FoamFile
{
    version     2.0;
    format      ascii;
    class       surfaceScalarField;
    location    "13";
    object      phi;
}
// * * * * * * * * * * * * * * * * * * * * * * * * * * * * * * * * * * * * * //

dimensions      [0 3 -1 0 0 0 0];

internalField   nonuniform List<scalar> 
1111
(
5.91165e-09
1.34717e-08
-1.51893e-08
-4.194e-09
6.03241e-09
-1.13594e-08
1.12387e-08
-1.42832e-08
4.24176e-09
9.98293e-09
5.85527e-11
1.33932e-10
-1.50863e-10
-1.38727e-08
1.38896e-08
-1.38407e-08
1.3668e-08
3.0661e-10
-1.1151e-09
1.48189e-08
1.72475e-09
-3.75674e-09
9.18493e-09
-1.13997e-08
5.9715e-09
-6.37067e-09
-1.23547e-08
1.23438e-08
6.3815e-09
-5.11317e-08
-2.53641e-08
7.64958e-08
-8.06315e-09
7.39424e-09
6.70131e-09
3.79059e-09
3.91152e-10
-3.87507e-09
-3.06673e-10
1.55082e-08
-1.58485e-08
-2.21971e-08
2.25374e-08
-9.69287e-09
-8.53307e-09
9.12782e-09
9.09812e-09
-3.41423e-08
1.7005e-08
-3.20347e-08
4.9172e-08
9.6606e-09
-1.81925e-09
-1.4212e-08
-4.11554e-09
3.86829e-09
-3.15762e-09
3.40488e-09
-3.72086e-09
1.29386e-08
2.0208e-09
-1.12386e-08
8.8871e-09
-2.06554e-09
-1.49789e-08
8.15729e-09
3.89143e-08
-3.24502e-08
-6.46414e-09
-1.90383e-08
-4.25334e-10
1.79507e-08
1.51298e-09
-1.67099e-10
3.7351e-09
-1.81183e-08
1.45503e-08
-6.42976e-08
-3.04779e-09
6.73454e-08
2.3102e-10
-1.4219e-09
-4.32002e-10
1.62288e-09
-9.32854e-10
-1.30749e-08
-2.81303e-10
-3.82544e-10
3.75179e-10
2.88668e-10
-1.00064e-08
-8.07311e-09
1.22329e-08
5.84657e-09
9.36966e-10
-2.26248e-09
-8.48592e-09
9.81144e-09
7.58946e-09
1.15665e-09
-8.30927e-09
-4.36829e-10
-2.57114e-09
-7.78165e-09
1.04716e-08
-1.18849e-10
1.10705e-08
3.55359e-12
-2.18696e-09
-1.15046e-09
1.11204e-09
1.62312e-10
-1.23892e-10
-4.76472e-10
1.01836e-09
6.58051e-10
-1.19994e-09
-7.32303e-10
-5.11248e-11
7.77373e-10
6.0539e-12
4.59909e-11
-1.19874e-09
8.16631e-11
1.07109e-09
-1.13391e-11
-1.09313e-09
5.54045e-10
-1.78709e-08
-1.72146e-09
-6.4222e-10
8.02668e-11
-1.70349e-10
1.31676e-08
-1.32159e-08
3.78343e-09
-5.13165e-10
7.22327e-10
5.05209e-10
-7.14371e-10
-1.04728e-09
-2.70744e-09
2.10196e-09
1.65276e-09
-1.80425e-09
8.10384e-09
-1.00563e-08
-4.99248e-10
-2.47541e-10
1.04569e-10
-8.82565e-09
9.94275e-09
-9.18025e-09
1.15629e-08
-1.64444e-08
5.1449e-09
-2.63372e-10
1.30437e-10
-2.65489e-10
-3.64195e-10
3.40024e-10
1.00995e-09
-2.37927e-10
-6.02557e-08
7.46811e-08
-1.44254e-08
1.25081e-09
-4.56121e-10
-1.46372e-09
6.69026e-10
7.08018e-10
1.03205e-08
-1.34994e-08
2.47096e-09
-9.10187e-11
6.33678e-09
-7.56228e-09
1.31653e-09
-6.29336e-09
5.84919e-09
5.37155e-09
-4.92738e-09
-6.67137e-09
-2.54426e-09
2.34077e-09
6.87485e-09
6.15413e-10
-9.0683e-08
9.0262e-08
-1.94436e-10
-9.27798e-11
-9.03255e-08
9.06246e-08
-2.06359e-10
8.30829e-08
-1.52734e-09
1.0228e-10
-8.16579e-08
-3.34743e-09
1.347e-10
9.29922e-10
9.98381e-10
-6.77491e-10
4.17502e-09
-1.98066e-09
3.24999e-09
-5.44434e-09
-1.23651e-09
1.12042e-09
-1.50534e-08
6.59577e-09
8.87681e-09
1.10385e-09
-9.59509e-09
-3.85571e-10
-5.97514e-09
1.23567e-08
1.54094e-09
-7.92249e-09
1.40065e-08
-3.69993e-09
3.10411e-09
-1.34107e-08
1.53037e-08
1.54463e-09
-1.41952e-09
8.09753e-11
-2.0234e-08
-7.88448e-09
2.80375e-08
1.32905e-08
-8.10963e-09
-2.25959e-09
7.4925e-09
-1.1208e-08
-1.95737e-10
3.92485e-10
-1.66046e-09
-3.75245e-08
-2.27312e-08
7.83176e-09
-2.4352e-10
3.97466e-09
-6.54869e-09
1.04313e-08
6.06014e-09
-7.77388e-10
4.56896e-10
6.31095e-10
-3.10603e-10
5.99278e-09
-4.5241e-09
3.49282e-09
-4.9615e-09
-7.72101e-10
-7.79246e-10
3.52605e-10
9.2701e-10
-8.9647e-10
-3.0385e-10
-1.34168e-09
1.16906e-09
-1.69453e-08
2.28357e-09
1.45903e-09
1.32027e-08
3.56448e-10
-9.12247e-10
-2.21589e-10
-3.31547e-09
-1.45919e-08
9.62116e-10
5.63861e-09
1.14766e-08
-5.24058e-09
-1.18747e-08
1.6256e-08
5.94487e-10
-1.5743e-08
-1.1075e-09
-8.65146e-10
6.24579e-10
6.97463e-10
-1.243e-09
6.85509e-10
5.57493e-10
-6.88766e-09
-3.92948e-09
4.52379e-09
-5.28986e-10
7.44441e-10
-2.15455e-10
1.33128e-09
-1.46531e-08
-5.19665e-10
8.3409e-09
-9.62549e-09
-1.26994e-09
-1.54685e-09
1.23441e-08
4.39532e-09
-4.19259e-09
-1.25469e-08
4.04207e-10
6.84883e-09
-7.51334e-09
6.51371e-09
-2.10954e-09
-8.15823e-09
7.54545e-09
2.72232e-09
-1.77912e-09
5.79558e-10
-1.33924e-08
-3.35385e-10
-1.93602e-10
-7.298e-10
1.45693e-09
-7.3985e-09
8.59467e-10
1.69941e-08
-1.59759e-09
-1.59418e-08
1.70678e-08
-1.12595e-09
1.16267e-08
1.37807e-08
-1.53582e-08
-1.00492e-08
-1.03745e-09
1.69315e-09
-6.55692e-10
1.97929e-09
-2.62759e-09
6.48296e-10
3.67487e-09
-5.55156e-09
1.87669e-09
2.27419e-09
-1.92416e-09
-3.50027e-10
-1.2927e-08
1.26358e-10
1.28006e-08
3.06783e-09
-7.93636e-10
8.8001e-09
-1.47596e-08
6.28359e-09
-7.10441e-09
1.75936e-10
4.10866e-09
-4.94012e-10
-3.45898e-09
3.63492e-09
-8.43626e-09
9.8732e-09
-1.43694e-09
-1.08125e-09
4.0063e-09
1.24996e-09
1.66558e-08
-1.44911e-08
-1.45667e-09
-5.08955e-09
5.00397e-09
-1.89508e-09
-2.93013e-10
7.49929e-09
-7.38399e-09
-1.15299e-10
7.07355e-09
4.29079e-09
4.32438e-10
-1.54222e-08
1.01281e-08
1.69208e-08
5.67112e-09
8.25126e-09
8.18297e-09
-6.61875e-09
4.43875e-10
-1.33708e-08
1.70502e-09
-4.57803e-10
-1.22174e-08
4.05598e-09
-4.21063e-10
1.50824e-08
-1.44879e-08
-2.73007e-11
-1.25397e-09
-1.33281e-08
6.93685e-09
1.02192e-09
-7.47198e-11
-8.96296e-09
5.58667e-09
-3.23692e-08
-1.24429e-08
-2.15237e-09
1.26715e-09
1.34726e-08
1.09967e-08
-1.07104e-08
-1.37589e-08
1.73851e-08
-3.11509e-09
-1.427e-08
1.87522e-09
3.75229e-09
-1.58355e-09
-1.04275e-09
-1.12586e-09
1.46328e-09
7.05335e-10
-3.43919e-10
4.84361e-10
4.90653e-10
6.50106e-08
-6.48271e-08
-1.83512e-10
6.51431e-08
-6.53356e-08
1.92511e-10
8.4556e-10
6.45207e-08
-6.55643e-08
1.04364e-09
6.35496e-08
9.71034e-10
-3.24987e-10
-6.65093e-08
9.45009e-10
-6.33053e-08
6.35996e-08
-2.94333e-10
1.38037e-09
-6.78897e-08
-6.2997e-08
-3.08287e-10
1.19453e-08
-1.33127e-09
1.99807e-09
-3.78169e-09
3.11489e-09
5.01252e-10
-1.37548e-09
1.26265e-09
-9.38735e-10
1.57431e-09
-1.87175e-09
1.23617e-09
1.64519e-09
-1.81632e-09
5.63619e-10
-1.28253e-10
-3.27818e-09
3.20173e-09
-2.50139e-09
2.57784e-09
-1.05665e-09
-2.97528e-09
2.70066e-09
-4.02711e-09
-5.42437e-09
7.03748e-10
-8.31225e-10
1.57771e-09
1.25925e-09
-6.61884e-09
7.97548e-09
2.93415e-09
2.17384e-08
-4.35324e-09
-8.7805e-10
3.07773e-10
1.27403e-09
-9.89438e-09
-2.76301e-08
5.51402e-09
-4.55949e-09
-3.05181e-09
2.09729e-09
1.4463e-10
-5.97892e-12
6.38722e-10
-2.9522e-09
3.60999e-09
8.49621e-09
9.96921e-10
-7.35821e-10
2.29645e-09
-2.61728e-09
2.47217e-09
1.43674e-08
1.28858e-08
-2.64265e-08
3.20403e-08
5.89177e-09
-2.20283e-08
-1.029e-08
1.76797e-08
-1.73135e-08
1.06305e-08
-3.72313e-10
1.21996e-10
-1.566e-09
-2.04395e-09
-1.505e-09
3.12763e-09
1.43618e-08
-4.42668e-10
-1.33396e-08
3.61276e-10
-3.07006e-09
-2.66495e-10
1.48994e-08
1.71477e-08
1.33458e-08
7.75772e-10
-1.52171e-09
-1.25999e-08
-2.06007e-09
5.94365e-09
1.20391e-08
-9.74202e-10
-1.3729e-09
-3.49851e-09
2.73617e-09
3.96407e-09
2.388e-09
1.38597e-08
4.17904e-09
-1.36434e-08
1.68014e-08
-1.47748e-09
2.97996e-09
-3.73038e-09
1.90706e-09
-4.43918e-09
1.25796e-08
-1.18613e-08
-1.3506e-08
5.06851e-10
8.55995e-09
-1.9787e-09
1.68869e-09
1.86772e-09
-8.97144e-09
5.32613e-10
-4.00406e-09
-5.90577e-09
1.19507e-08
-1.50163e-08
1.55392e-09
1.65228e-09
-2.10174e-09
1.60493e-08
-1.55998e-08
-9.57442e-10
1.38606e-08
2.41095e-09
-3.52081e-09
-1.36498e-08
7.23024e-09
-1.66097e-08
-7.934e-09
6.32542e-09
5.81191e-09
1.39915e-08
-9.22185e-09
3.20635e-09
8.73782e-09
9.69014e-09
3.95646e-09
-4.04924e-09
2.11599e-08
-1.8589e-08
4.65933e-09
-9.68498e-09
2.33835e-09
4.95138e-09
1.33091e-08
-7.92174e-11
1.21947e-08
-1.30729e-08
-1.54222e-09
2.80031e-09
-2.04608e-09
7.87987e-10
1.05464e-08
-6.26865e-09
7.19891e-09
-1.00463e-08
1.46516e-09
-4.75344e-09
1.0977e-08
-1.14641e-08
-7.37447e-09
8.69786e-09
9.22299e-09
1.23166e-08
1.03391e-09
-1.34298e-08
1.82204e-09
9.00491e-10
-1.06922e-08
-6.75718e-09
1.00749e-08
-1.90919e-09
2.52269e-09
-8.41705e-09
4.60121e-09
-5.09639e-09
1.10564e-08
-3.50455e-09
-1.11944e-08
3.64258e-09
-4.54967e-09
1.08526e-08
2.24483e-09
1.26589e-09
-4.8484e-09
-1.7325e-08
1.03487e-08
1.18248e-08
9.44181e-10
-1.05229e-08
-9.74541e-09
1.54199e-08
1.18207e-08
2.68279e-09
-9.55217e-09
-1.31522e-08
-2.37136e-10
-1.23267e-08
3.49841e-10
-6.02384e-10
1.07242e-08
1.24795e-08
-8.06482e-09
1.58737e-08
-1.5141e-08
3.44636e-09
-5.52838e-10
1.58109e-09
1.21744e-08
-3.87136e-09
-1.21959e-08
-5.14647e-09
2.232e-10
4.46547e-09
1.17423e-08
-7.57515e-09
9.14798e-10
-9.96943e-10
2.07206e-09
-2.61734e-09
5.94453e-09
2.58458e-08
-1.1554e-09
-1.41261e-08
1.52815e-08
2.72861e-08
-2.17669e-08
2.15246e-08
1.92206e-08
-1.23624e-08
-2.372e-09
1.47551e-08
1.20912e-10
-1.18019e-08
-4.03874e-10
-5.98392e-09
-2.03824e-09
2.49787e-09
1.7852e-09
3.57102e-10
-1.04807e-08
1.03278e-08
-2.04158e-10
1.70212e-09
-5.53207e-09
-1.03595e-08
1.00613e-08
-5.99707e-10
-1.0049e-08
-1.47987e-11
-1.018e-08
-3.02843e-09
-1.15366e-08
2.34539e-09
7.70146e-09
5.07593e-09
4.3445e-10
-1.12866e-08
1.12092e-08
7.37536e-10
-8.27611e-09
5.28656e-09
-5.0557e-10
2.86661e-09
-3.64036e-09
-1.27273e-08
-1.34709e-08
1.275e-08
-9.77239e-09
-1.55216e-08
9.87186e-09
9.02936e-09
7.93353e-10
2.42799e-09
-1.65541e-08
1.05494e-08
1.63998e-09
4.0717e-09
4.29283e-10
-6.7882e-10
-5.22564e-10
-4.01109e-09
2.80049e-09
-1.85946e-09
4.96087e-10
-5.78722e-10
8.2635e-11
-2.38818e-09
1.23135e-08
1.89545e-09
2.52821e-09
-1.4407e-09
-2.00524e-09
8.32885e-11
-2.69279e-09
-8.78452e-10
1.2502e-08
9.58333e-09
-6.0593e-10
7.1865e-09
-1.16794e-09
-5.41263e-09
-9.86983e-09
-4.77242e-09
3.91074e-10
1.05013e-10
4.19591e-09
1.44568e-09
-1.61645e-08
-7.38209e-10
-1.01524e-09
-1.82456e-09
6.83826e-10
2.42874e-09
6.43392e-08
-4.3462e-10
-6.39045e-08
6.2733e-08
-4.50426e-11
-6.2688e-08
-1.40358e-08
2.04006e-10
1.43812e-08
-5.4942e-10
2.38081e-09
-2.17487e-09
2.91119e-09
1.78637e-09
-4.6669e-09
-7.05687e-10
-7.1498e-10
5.80699e-10
-1.76323e-10
7.14214e-10
-5.32471e-10
1.83605e-08
1.15289e-09
-1.53175e-08
-3.98666e-10
-1.97321e-09
1.19517e-08
2.19596e-09
1.75864e-09
4.67669e-09
-1.67066e-09
-8.01449e-08
-2.39111e-08
-4.84124e-09
1.54038e-08
2.37602e-09
-1.05428e-09
-3.49798e-09
-1.4999e-09
8.63027e-10
-7.36033e-10
-1.3857e-08
-3.34108e-10
1.41911e-08
-1.04783e-08
-6.69435e-09
1.04154e-08
-9.07971e-09
8.91393e-09
-3.29461e-10
2.0755e-09
1.33306e-08
-1.30046e-08
-3.25953e-10
8.31381e-10
3.72877e-11
9.21451e-09
1.09848e-09
-1.3508e-09
-4.78557e-10
-1.40603e-08
-5.26419e-10
-1.30721e-08
1.17425e-08
-1.11152e-08
-6.60392e-08
6.49252e-08
1.11401e-09
6.44029e-10
-6.50008e-10
1.14091e-08
-6.10014e-10
3.12911e-11
-1.67161e-09
2.74287e-09
-3.43651e-09
-1.34362e-08
-1.53927e-09
2.47697e-09
-4.4003e-09
-1.36599e-08
1.89569e-09
5.60954e-09
9.26035e-09
-8.70969e-09
-6.34613e-10
2.45993e-11
-9.40664e-09
-1.20558e-08
-2.63932e-10
-6.17054e-08
-2.45837e-10
6.19512e-08
1.05878e-09
6.24909e-08
-4.87976e-10
-6.35537e-10
-1.417e-08
-9.65283e-11
-6.37799e-08
6.38765e-08
3.75912e-10
-6.32584e-08
6.28825e-08
6.48139e-10
6.40004e-08
-3.95375e-10
-6.3605e-08
6.42348e-08
-2.34379e-10
-8.80931e-08
8.88489e-08
2.1522e-10
8.70009e-08
-8.70205e-08
-1.63829e-10
-8.67921e-08
-2.57393e-10
8.67179e-08
-4.20357e-11
-8.50678e-08
-7.79296e-10
8.66932e-08
2.17232e-10
-6.04453e-10
1.73615e-09
8.58026e-08
-6.9417e-08
6.30501e-08
-6.24346e-08
-6.17981e-08
6.43824e-08
-1.47613e-10
-3.07879e-09
2.71463e-09
-1.32793e-08
1.09512e-10
2.81562e-10
2.68223e-09
1.05683e-08
-1.26339e-08
3.84356e-08
-3.46355e-08
-1.60175e-08
1.43135e-08
-1.05188e-10
-2.11279e-10
3.86228e-10
1.04204e-09
-2.1447e-10
4.51252e-10
4.71329e-09
1.09233e-09
-3.89856e-09
-5.63686e-10
6.43953e-10
-4.59117e-10
-2.44724e-09
1.25692e-08
2.19156e-09
-1.43854e-08
-2.12605e-09
-3.93393e-09
5.69068e-09
1.1199e-09
-2.33938e-09
1.38408e-08
-1.15272e-09
-5.37588e-09
9.25767e-09
-7.71095e-09
-1.86706e-08
-1.27003e-08
7.72916e-09
5.47798e-09
-3.17889e-10
-5.20611e-10
3.33636e-09
1.4252e-08
1.50952e-09
-9.42614e-10
-5.11469e-10
5.4228e-10
-3.23823e-10
1.57446e-08
-4.3653e-10
-1.56422e-08
-6.50502e-09
-3.16209e-09
2.96783e-10
-2.95126e-10
4.71631e-09
-1.91348e-08
7.10026e-10
-1.77883e-09
-2.41412e-09
-2.02711e-09
1.51076e-08
-9.07905e-08
4.83458e-10
8.9662e-08
5.54954e-10
-8.97293e-08
-6.9273e-10
8.7453e-08
-1.17846e-10
-8.77698e-08
-7.03313e-10
-1.86916e-09
1.58968e-08
8.90027e-08
-4.11735e-10
1.78421e-10
-5.55166e-11
1.1894e-08
1.93004e-09
-1.07651e-08
-1.16929e-08
-5.40245e-09
8.43018e-09
1.41472e-09
-6.91075e-09
-6.62908e-09
9.12887e-09
-3.2868e-10
1.01242e-08
1.87811e-08
-1.74819e-08
3.00168e-09
-1.22507e-08
3.05648e-09
-6.99539e-08
3.91475e-09
-2.01623e-08
-1.23248e-08
-6.53679e-10
-5.72372e-09
-1.52985e-08
9.22031e-09
-1.50157e-08
6.36129e-10
5.42441e-10
-1.4271e-09
-1.5902e-08
1.64467e-08
1.07066e-08
-1.05719e-08
-5.56205e-09
1.45281e-08
-1.47981e-09
7.92445e-10
-1.63316e-09
7.23919e-10
1.17684e-08
3.5773e-09
7.11038e-08
-1.77452e-08
9.60439e-10
-1.43822e-08
-3.4237e-10
-3.84554e-10
-3.00249e-10
6.42078e-08
-6.43257e-08
-6.36015e-08
-6.36701e-08
3.04949e-10
-5.66717e-11
-8.80181e-08
-6.41637e-08
6.58998e-08
6.50274e-08
-6.39465e-08
6.4423e-08
-6.39885e-08
6.36437e-08
-6.41523e-08
6.33863e-08
8.846e-08
4.32983e-10
-6.54186e-09
7.49423e-08
-6.48232e-08
1.6484e-10
-1.6484e-10
2.57413e-09
-3.91799e-10
1.54342e-08
-1.93346e-10
1.93346e-10
5.59116e-10
1.11342e-09
1.43154e-08
1.25675e-08
-2.3668e-09
3.41005e-09
6.51673e-09
1.88683e-09
5.03757e-10
-3.61765e-10
-2.86405e-09
1.42551e-08
1.47865e-08
-4.40553e-09
1.13013e-08
3.06166e-10
2.36329e-10
3.05096e-09
-1.09322e-09
-1.85155e-09
-5.70739e-09
-1.81136e-10
-5.34438e-10
1.51219e-08
4.22781e-10
2.10861e-10
1.76218e-08
-2.48332e-08
1.69699e-08
2.5257e-09
1.54736e-09
2.00276e-09
-3.45691e-09
1.8829e-08
-1.73749e-08
-1.70545e-10
1.11709e-09
-1.43599e-09
-7.91079e-08
-7.0853e-08
1.49351e-09
-1.32128e-09
7.58471e-10
2.25502e-08
1.77556e-08
-6.38183e-09
2.46332e-10
-4.53906e-09
-1.68151e-09
3.00765e-08
2.50769e-10
1.42451e-08
6.85097e-08
1.35334e-10
5.96304e-10
-2.52341e-10
-3.25816e-10
-3.94074e-09
2.31045e-08
-1.46613e-08
1.28933e-09
-1.30621e-08
-1.1672e-10
2.02543e-08
-2.77979e-08
9.11047e-10
2.75265e-09
-8.13304e-10
)
;

boundaryField
{
    back
    {
        type            empty;
        value           nonuniform 0();
    }
    ingreso
    {
        type            calculated;
        value           nonuniform List<scalar> 
14
(
-1.54286e-08
-1.54288e-08
-1.54288e-08
-1.54288e-08
-1.54286e-08
-1.54283e-08
-1.54288e-08
-1.54288e-08
-1.54286e-08
-1.54286e-08
-1.54288e-08
-1.5428e-08
-1.5428e-08
-1.54286e-08
)
;
    }
    salida
    {
        type            calculated;
        value           nonuniform List<scalar> 2(1.04056e-07 1.11944e-07);
    }
    front
    {
        type            empty;
        value           nonuniform 0();
    }
    defaultFaces
    {
        type            calculated;
        value           uniform 0;
    }
}


// ************************************************************************* //
