/*--------------------------------*- C++ -*----------------------------------*\
  =========                 |
  \\      /  F ield         | OpenFOAM: The Open Source CFD Toolbox
   \\    /   O peration     | Website:  https://openfoam.org
    \\  /    A nd           | Version:  7
     \\/     M anipulation  |
\*---------------------------------------------------------------------------*/
FoamFile
{
    version     2.0;
    format      ascii;
    class       surfaceScalarField;
    location    "5";
    object      phi;
}
// * * * * * * * * * * * * * * * * * * * * * * * * * * * * * * * * * * * * * //

dimensions      [0 3 -1 0 0 0 0];

internalField   nonuniform List<scalar> 
1111
(
5.83987e-09
1.3481e-08
-1.49771e-08
-4.34381e-09
5.93888e-09
-1.13246e-08
1.12256e-08
-1.40293e-08
4.07498e-09
1.01789e-08
-2.24592e-10
9.50262e-11
-1.35913e-10
-1.37724e-08
1.38133e-08
-1.38228e-08
1.362e-08
2.9778e-10
-7.57569e-10
1.48328e-08
1.35331e-09
-3.17791e-09
8.6933e-09
-1.12668e-08
5.7514e-09
-6.28677e-09
-1.20865e-08
1.22349e-08
6.13842e-09
-5.03207e-08
-2.49032e-08
7.52239e-08
-7.97144e-09
7.31582e-09
6.59449e-09
3.81169e-09
4.24306e-10
-3.90931e-09
-3.26689e-10
1.52683e-08
-1.58945e-08
-2.20081e-08
2.26343e-08
-9.65283e-09
-8.7651e-09
9.27994e-09
9.13798e-09
-3.42679e-08
1.65671e-08
-3.22095e-08
4.99103e-08
9.68852e-09
-1.81679e-09
-1.41585e-08
-4.6714e-09
4.14279e-09
-2.8441e-09
3.37272e-09
-3.71929e-09
1.28197e-08
2.03565e-09
-1.1136e-08
8.92551e-09
-2.17338e-09
-1.48617e-08
8.10955e-09
3.90385e-08
-3.28619e-08
-6.17658e-09
-1.88568e-08
-5.01927e-10
1.81946e-08
1.16416e-09
-1.00772e-10
3.73734e-09
-1.80992e-08
1.44627e-08
-6.81571e-08
-1.98834e-09
7.01454e-08
2.5123e-10
-1.45067e-09
-4.50814e-10
1.65025e-09
-9.80839e-10
-1.29427e-08
-2.98834e-10
-4.05022e-10
3.91891e-10
3.11965e-10
-1.01826e-08
-8.10646e-09
1.22624e-08
6.02662e-09
1.02652e-09
-2.34039e-09
-8.40712e-09
9.72098e-09
7.52308e-09
1.22356e-09
-8.23898e-09
-5.0766e-10
-2.41523e-09
-7.79783e-09
1.02365e-08
-2.34668e-11
1.08571e-08
3.9861e-10
-2.33018e-09
-1.17678e-09
1.1386e-09
1.82021e-10
-1.43836e-10
-5.0929e-10
1.04345e-09
7.01432e-10
-1.23559e-09
-7.57544e-10
-5.53201e-11
8.00914e-10
1.19495e-11
5.14302e-11
-1.23865e-09
7.98056e-11
1.10742e-09
8.90632e-14
-1.12544e-09
6.64219e-10
-1.76682e-08
-1.8528e-09
-6.69306e-10
8.89021e-11
-1.77139e-10
1.30665e-08
-1.30388e-08
3.70964e-09
-5.33129e-10
7.36757e-10
5.29376e-10
-7.33004e-10
-1.20887e-09
-2.71391e-09
2.14675e-09
1.77603e-09
-1.57855e-09
7.92969e-09
-9.52905e-09
-5.23976e-10
-2.59204e-10
1.13875e-10
-8.79961e-09
9.81773e-09
-8.98956e-09
1.15204e-08
-1.624e-08
5.17166e-09
-4.51995e-10
1.40291e-10
-2.7532e-10
-3.88946e-10
3.53762e-10
1.03167e-09
-2.4683e-10
-6.01556e-08
7.41431e-08
-1.39875e-08
1.26917e-09
-4.7667e-10
-1.48513e-09
6.92638e-10
5.17114e-10
1.03688e-08
-1.3308e-08
2.42211e-09
8.25191e-12
6.12727e-09
-7.17282e-09
1.0373e-09
-6.27011e-09
5.85177e-09
5.36087e-09
-4.94253e-09
-6.54286e-09
-2.63633e-09
2.37212e-09
6.80707e-09
-1.34702e-10
-7.9116e-08
7.91895e-08
6.12331e-11
-3.11715e-10
-7.94419e-08
7.91466e-08
6.07105e-10
8.39722e-08
-1.83512e-09
7.28499e-10
-8.28655e-08
-3.31254e-09
1.40348e-10
9.52675e-10
1.01533e-09
-6.9884e-10
4.21541e-09
-1.99151e-09
3.23319e-09
-5.45709e-09
-1.26813e-09
1.14523e-09
-1.50897e-08
6.67894e-09
8.74768e-09
1.17729e-09
-9.45913e-09
-4.65843e-10
-5.49564e-09
1.20125e-08
1.42394e-09
-7.94081e-09
1.3802e-08
-3.52105e-09
3.08562e-09
-1.33666e-08
1.521e-08
1.34349e-09
-1.12467e-09
2.04206e-10
-2.03132e-08
-7.81628e-09
2.79252e-08
1.31254e-08
-8.12303e-09
-2.09198e-09
7.54146e-09
-1.09451e-08
-2.12158e-10
4.33833e-10
-1.70681e-09
-3.75191e-08
-2.26365e-08
7.82018e-09
-2.31843e-10
3.93203e-09
-6.36639e-09
1.02249e-08
5.95923e-09
-7.97026e-10
4.69258e-10
6.47907e-10
-3.20139e-10
5.99005e-09
-4.51531e-09
3.49066e-09
-4.9654e-09
-8.01702e-10
-8.00284e-10
3.63334e-10
9.50087e-10
-9.256e-10
-3.36865e-10
-1.38882e-09
1.2164e-09
-1.66525e-08
2.10307e-09
1.43867e-09
1.31107e-08
3.68429e-10
-9.33456e-10
-2.31998e-10
-2.99399e-09
-1.45324e-08
8.73888e-10
5.61491e-09
1.13972e-08
-5.23264e-09
-1.17794e-08
1.61801e-08
6.30504e-10
-1.56755e-08
-1.13512e-09
-8.84211e-10
6.39633e-10
7.13837e-10
-1.34659e-09
7.43999e-10
6.02594e-10
-6.83201e-09
-3.9772e-09
4.53911e-09
-5.80252e-10
8.09599e-10
-2.29347e-10
1.3474e-09
-1.4524e-08
-3.97745e-10
8.17997e-09
-9.36078e-09
-1.29827e-09
-1.68346e-09
1.23068e-08
4.37391e-09
-4.18251e-09
-1.24982e-08
4.45166e-10
6.8245e-09
-7.47771e-09
6.50498e-09
-2.15937e-09
-8.05913e-09
7.46894e-09
2.74956e-09
-1.74275e-09
5.28927e-10
-1.33186e-08
-3.71059e-10
-2.09193e-10
-8.38764e-10
1.51823e-09
-7.22232e-09
9.04325e-10
1.68701e-08
-1.59438e-09
-1.66822e-08
1.78268e-08
-1.14459e-09
1.15648e-08
1.35959e-08
-1.50498e-08
-1.01109e-08
-1.10904e-09
1.8062e-09
-6.97159e-10
2.16873e-09
-2.90539e-09
7.3666e-10
4.11426e-09
-6.22597e-09
2.11171e-09
2.4208e-09
-2.05743e-09
-3.63368e-10
-1.34966e-08
9.90294e-11
1.33976e-08
3.24862e-09
-8.2782e-10
8.88319e-09
-1.44962e-08
6.2796e-09
-7.11011e-09
2.39878e-10
4.08811e-09
-5.16293e-10
-3.67293e-09
3.9128e-09
-8.90036e-09
1.03892e-08
-1.48882e-09
-1.17499e-09
3.97618e-09
1.41422e-09
1.63522e-08
-1.44455e-08
-1.38963e-09
-4.93298e-09
4.94942e-09
-2.00794e-09
-2.99439e-10
7.87384e-09
-7.6255e-09
-2.48338e-10
7.0497e-09
4.30121e-09
4.85275e-10
-1.54409e-08
1.01046e-08
1.69011e-08
5.69448e-09
8.17972e-09
8.30161e-09
-6.31057e-09
3.59174e-10
-1.38558e-08
1.81382e-09
-6.19536e-10
-1.12823e-08
4.30596e-09
-3.93152e-10
1.57779e-08
-1.51474e-08
1.12357e-11
-1.30942e-09
-1.31811e-08
6.88194e-09
1.04443e-09
-8.08481e-11
-8.97341e-09
5.84847e-09
-3.26577e-08
-1.21949e-08
-2.15661e-09
1.17045e-09
1.34554e-08
1.08978e-08
-1.06525e-08
-1.37008e-08
1.7928e-08
-3.10699e-09
-1.4821e-08
1.91211e-09
3.70692e-09
-1.64871e-09
-1.06127e-09
-1.14957e-09
1.48118e-09
7.2966e-10
-3.53725e-10
4.99422e-10
5.02211e-10
6.86206e-08
-6.84954e-08
-1.2523e-10
6.87509e-08
-6.89078e-08
1.56942e-10
5.93813e-10
6.69203e-08
-6.55226e-08
-1.39772e-09
6.86042e-08
-1.68389e-09
-2.87232e-10
-6.48681e-08
-6.54527e-10
-6.80901e-08
6.81649e-08
-7.48074e-11
3.40338e-10
-6.52084e-08
-6.801e-08
-8.00709e-11
1.19503e-08
-1.37784e-09
2.06785e-09
-3.78276e-09
3.09275e-09
5.15885e-10
-1.39645e-09
1.28786e-09
-9.659e-10
1.59385e-09
-1.89442e-09
1.26647e-09
1.66971e-09
-1.83198e-09
5.96102e-10
-1.35856e-10
-3.27225e-09
3.21573e-09
-2.52571e-09
2.58223e-09
-1.09443e-09
-3.0104e-09
2.72699e-09
-4.05616e-09
-5.40169e-09
7.16751e-10
-8.50987e-10
1.60431e-09
1.2774e-09
-6.6129e-09
7.95071e-09
2.9634e-09
2.22237e-08
-4.29569e-09
-8.85456e-10
3.24272e-10
1.27794e-09
-9.72754e-09
-2.77915e-08
5.50741e-09
-4.56397e-09
-3.0341e-09
2.09066e-09
1.54208e-10
-1.86589e-11
6.65366e-10
-2.99459e-09
3.63152e-09
8.45367e-09
1.02345e-09
-7.80199e-10
2.30623e-09
-2.62046e-09
2.50251e-09
1.42157e-08
1.28356e-08
-2.65678e-08
3.21086e-08
5.56784e-09
-2.18349e-08
-1.03007e-08
1.76331e-08
-1.72432e-08
1.05079e-08
-4.13278e-10
1.66604e-10
-1.5853e-09
-2.07852e-09
-1.26957e-09
2.79005e-09
1.4282e-08
-4.06425e-10
-1.33467e-08
4.82057e-10
-3.137e-09
-3.55453e-10
1.48243e-08
1.70245e-08
1.32516e-08
7.08208e-10
-1.51932e-09
-1.24405e-08
-2.10885e-09
5.93575e-09
1.19859e-08
-1.01608e-09
-1.41878e-09
-3.50629e-09
2.74062e-09
3.98141e-09
2.38517e-09
1.37493e-08
4.1783e-09
-1.35537e-08
1.64837e-08
-1.32777e-09
2.97239e-09
-3.7324e-09
1.90905e-09
-4.39865e-09
1.24457e-08
-1.17663e-08
-1.33781e-08
3.34482e-10
8.64493e-09
-1.99098e-09
1.7064e-09
1.88889e-09
-8.95722e-09
6.39369e-10
-3.87709e-09
-6.05368e-09
1.19072e-08
-1.48107e-08
1.58171e-09
1.64427e-09
-2.09753e-09
1.5934e-08
-1.54807e-08
-9.72274e-10
1.38174e-08
2.3811e-09
-3.35612e-09
-1.35212e-08
7.13932e-09
-1.64824e-08
-7.90005e-09
6.25947e-09
5.77025e-09
1.39148e-08
-9.13005e-09
3.20858e-09
8.67103e-09
9.62683e-09
4.01836e-09
-4.0181e-09
2.094e-08
-1.84843e-08
4.68365e-09
-9.56688e-09
2.34894e-09
4.60596e-09
1.33164e-08
-9.51378e-11
1.20942e-08
-1.29714e-08
-1.53951e-09
2.89983e-09
-2.14237e-09
7.8206e-10
1.04589e-08
-6.24732e-09
7.18555e-09
-9.89456e-09
1.50497e-09
-4.75374e-09
1.08935e-08
-1.13724e-08
-7.42929e-09
8.61031e-09
9.27791e-09
1.22168e-08
1.02432e-09
-1.33363e-08
1.84484e-09
9.13742e-10
-1.0622e-08
-6.77285e-09
9.96556e-09
-1.9515e-09
2.51854e-09
-8.33218e-09
4.58095e-09
-5.10186e-09
1.09906e-08
-3.51242e-09
-1.11226e-08
3.64444e-09
-4.5492e-09
1.0786e-08
2.25787e-09
1.29337e-09
-5.02609e-09
-1.6857e-08
1.02181e-08
1.1665e-08
9.62274e-10
-1.05822e-08
-9.9454e-09
1.55015e-08
1.16989e-08
2.66829e-09
-9.76124e-09
-1.31421e-08
-2.32182e-10
-1.24063e-08
3.45692e-10
-7.09455e-10
1.06003e-08
1.25323e-08
-8.21717e-09
1.57591e-08
-1.50117e-08
3.43088e-09
-6.53702e-10
1.61031e-09
1.21541e-08
-3.87595e-09
-1.2086e-08
-5.16739e-09
7.79505e-11
4.4699e-09
1.16422e-08
-7.54671e-09
1.10721e-09
-9.53298e-10
2.18499e-09
-2.77121e-09
5.86266e-09
2.55852e-08
-1.54837e-09
-1.49834e-08
1.65318e-08
2.69213e-08
-2.15606e-08
2.12602e-08
1.91494e-08
-1.23803e-08
-2.20054e-09
1.46902e-08
1.6624e-10
-1.18149e-08
-4.252e-10
-5.97585e-09
-2.04077e-09
2.50806e-09
1.79058e-09
3.99414e-10
-1.03266e-08
1.00755e-08
-1.48279e-10
1.50546e-09
-5.63555e-09
-1.02981e-08
9.99429e-09
-6.97642e-10
-9.90638e-09
-1.5172e-11
-1.01416e-08
-3.11943e-09
-1.14855e-08
2.3572e-09
7.686e-09
5.04689e-09
6.21921e-10
-1.12476e-08
1.10251e-08
7.5092e-10
-8.22737e-09
5.28877e-09
-4.49993e-10
2.89669e-09
-3.77203e-09
-1.25614e-08
-1.3404e-08
1.24775e-08
-1.0035e-08
-1.51049e-08
9.69903e-09
9.12853e-09
7.65161e-10
2.16812e-09
-1.71516e-08
1.04852e-08
1.62011e-09
4.07518e-09
4.443e-10
-6.98013e-10
-5.47989e-10
-4.02421e-09
2.82192e-09
-1.93471e-09
5.47494e-10
-6.39728e-10
9.22337e-11
-2.50815e-09
1.23105e-08
1.89652e-09
2.53595e-09
-1.56225e-09
-2.0659e-09
1.53986e-10
-2.71195e-09
-9.39249e-10
1.24186e-08
9.52027e-09
-6.44501e-10
7.17811e-09
-1.14209e-09
-5.39152e-09
-9.94399e-09
-4.24472e-09
4.33322e-10
1.14173e-10
3.98508e-09
1.31489e-09
-1.58821e-08
-7.73687e-10
-1.04268e-09
-1.69495e-09
6.64894e-10
2.24521e-09
6.8284e-08
-9.83778e-11
-6.81857e-08
6.79482e-08
-2.60642e-11
-6.79221e-08
-1.39662e-08
2.27459e-10
1.43089e-08
-5.70111e-10
2.22315e-09
-2.20532e-09
2.9229e-09
1.80096e-09
-5.01503e-09
-7.87665e-10
-7.31983e-10
5.96006e-10
-1.84161e-10
7.39404e-10
-5.54306e-10
1.80375e-08
1.25982e-09
-1.53122e-08
-4.28248e-10
-1.94372e-09
1.19012e-08
2.19663e-09
1.77274e-09
4.48694e-09
-1.65589e-09
-8.25379e-08
-2.31614e-08
-4.82721e-09
1.52507e-08
2.39618e-09
-1.12724e-09
-3.51943e-09
-1.53425e-09
8.99304e-10
-7.83828e-10
-1.45019e-08
-3.38015e-10
1.48399e-08
-1.04125e-08
-6.70406e-09
1.03437e-08
-9.00764e-09
8.85518e-09
-3.76204e-10
2.14879e-09
1.39507e-08
-1.36251e-08
-3.25614e-10
8.54498e-10
3.3093e-11
9.10257e-09
9.57766e-10
-1.39851e-09
-5.11945e-10
-1.40031e-08
-5.51214e-10
-1.28752e-08
1.15705e-08
-1.0951e-08
-6.57942e-08
6.60909e-08
-2.96685e-10
7.0455e-10
-7.23208e-10
1.13186e-08
-6.79459e-10
3.97311e-11
-1.47618e-09
2.732e-09
-3.51279e-09
-1.33937e-08
-1.3783e-09
2.36161e-09
-4.22024e-09
-1.35966e-08
1.93472e-09
5.60232e-09
9.20672e-09
-8.76174e-09
-6.9176e-10
1.23021e-11
-9.47818e-09
-1.17661e-08
-6.18128e-11
-6.95653e-08
3.85891e-10
6.91794e-08
-1.03422e-09
6.96384e-08
-2.11336e-10
-5.82355e-10
-1.41709e-08
-5.35433e-10
-6.61456e-08
6.6681e-08
-2.12257e-10
-6.76486e-08
6.78609e-08
6.78157e-10
6.89266e-08
-2.13052e-11
-6.89053e-08
6.8785e-08
1.41601e-10
-8.31967e-08
8.1421e-08
9.18108e-11
7.86607e-08
-7.87501e-08
-3.58908e-11
-8.44408e-08
-1.53672e-10
7.83461e-08
2.73585e-11
-8.4723e-08
-3.72268e-10
7.84361e-08
6.69641e-11
-4.10516e-10
1.55583e-09
7.74741e-08
-6.70435e-08
6.88884e-08
-6.90231e-08
-6.9877e-08
6.85718e-08
2.13197e-10
-3.11105e-09
2.76454e-09
-1.32072e-08
1.17624e-10
3.15699e-10
2.62209e-09
1.10021e-08
-1.31755e-08
3.90463e-08
-3.43533e-08
-1.59752e-08
1.4671e-08
-1.09482e-10
-2.11939e-10
4.09513e-10
1.04775e-09
-2.24198e-10
4.6648e-10
4.71594e-09
1.09968e-09
-3.90656e-09
-6.22355e-10
7.11257e-10
-5.08479e-10
-2.46534e-09
1.2516e-08
2.25986e-09
-1.43849e-08
-2.07062e-09
-3.96405e-09
5.68211e-09
1.12448e-09
-2.29963e-09
1.36355e-08
-1.11769e-09
-5.57057e-09
1.08356e-08
-7.6529e-09
-1.84777e-08
-1.26e-08
7.95452e-09
4.97995e-09
-3.13651e-10
-5.26052e-10
3.34776e-09
1.42263e-08
1.42173e-09
-8.15174e-10
-5.30734e-10
5.57419e-10
-3.26124e-10
1.55966e-08
-3.29368e-10
-1.56052e-08
-7.70337e-09
-3.19401e-09
3.07455e-10
-3.86347e-10
5.19206e-09
-1.96552e-08
7.23553e-10
-1.78891e-09
-2.43405e-09
-1.89857e-09
1.51004e-08
-7.9172e-08
-1.56274e-10
7.91465e-08
1.68757e-11
-8.02159e-08
2.38545e-10
7.92221e-08
1.45844e-10
-7.94663e-08
-7.24733e-10
-1.892e-09
1.58096e-08
7.90634e-08
3.60469e-10
1.70871e-10
2.60717e-10
1.24248e-08
1.87622e-09
-1.13165e-08
-1.16039e-08
-5.04075e-09
8.41124e-09
1.47735e-09
-6.92519e-09
-6.59889e-09
9.01775e-09
-3.68188e-10
1.00892e-08
1.85575e-08
-1.74275e-08
3.02934e-09
-1.21499e-08
3.09321e-09
-6.91909e-08
3.39673e-09
-1.99997e-08
-1.23091e-08
-6.67664e-10
-5.875e-09
-1.50959e-08
9.15604e-09
-1.48966e-08
6.53803e-10
5.61876e-10
-1.42418e-09
-1.58302e-08
1.63393e-08
1.15411e-08
-1.14007e-08
-5.68961e-09
1.43447e-08
-1.49646e-09
7.87272e-10
-1.68347e-09
7.79928e-10
1.18002e-08
3.67869e-09
7.04644e-08
-1.7548e-08
9.13372e-10
-1.42909e-08
-3.54743e-10
-4.05337e-10
-4.06972e-10
6.84939e-08
-6.8348e-08
-6.59747e-08
-6.72881e-08
2.07682e-11
-2.23747e-10
-7.92633e-08
-6.88131e-08
7.03689e-08
6.68194e-08
-6.87461e-08
6.64089e-08
-6.87187e-08
6.60366e-08
-6.87546e-08
6.58829e-08
7.91249e-08
4.5185e-10
-6.03301e-09
7.63447e-08
-6.6633e-08
1.85915e-10
-1.85915e-10
2.77052e-09
-3.89637e-10
1.5394e-08
-2.17005e-10
2.17005e-10
5.7621e-10
7.36753e-10
1.4692e-08
1.24438e-08
-1.96213e-09
3.00586e-09
6.56447e-09
1.87553e-09
5.10743e-10
-3.66063e-10
-2.90386e-09
1.41829e-08
1.48197e-08
-4.4816e-09
1.11453e-08
3.26394e-10
2.4308e-10
3.06549e-09
-1.12507e-09
-1.86541e-09
-5.35024e-09
-1.80521e-10
-5.48384e-10
1.50401e-08
4.37734e-10
2.28162e-10
1.8491e-08
-2.47958e-08
1.68665e-08
2.49834e-09
1.55678e-09
1.94265e-09
-3.42909e-09
1.87297e-08
-1.72433e-08
-1.85144e-10
1.19994e-09
-2.68452e-09
-8.04777e-08
-6.9728e-08
1.50919e-09
-1.38829e-09
7.71835e-10
2.25842e-08
1.72335e-08
-6.33399e-09
2.69088e-10
-4.53612e-09
-1.51655e-09
3.07101e-08
7.36327e-10
1.21691e-08
6.33167e-08
1.51182e-10
6.05115e-10
-2.71033e-10
-3.43497e-10
-3.95274e-09
2.31333e-08
-1.46693e-08
1.32084e-09
-1.26047e-08
-1.29783e-10
2.04226e-08
-2.77621e-08
9.31662e-10
3.13222e-09
-8.65178e-10
)
;

boundaryField
{
    back
    {
        type            empty;
        value           nonuniform 0();
    }
    ingreso
    {
        type            calculated;
        value           nonuniform List<scalar> 
14
(
-1.54286e-08
-1.54288e-08
-1.54288e-08
-1.54288e-08
-1.54286e-08
-1.54283e-08
-1.54288e-08
-1.54288e-08
-1.54286e-08
-1.54286e-08
-1.54288e-08
-1.5428e-08
-1.5428e-08
-1.54286e-08
)
;
    }
    salida
    {
        type            calculated;
        value           nonuniform List<scalar> 2(1.05699e-07 1.10301e-07);
    }
    front
    {
        type            empty;
        value           nonuniform 0();
    }
    defaultFaces
    {
        type            calculated;
        value           uniform 0;
    }
}


// ************************************************************************* //
