/*--------------------------------*- C++ -*----------------------------------*\
  =========                 |
  \\      /  F ield         | OpenFOAM: The Open Source CFD Toolbox
   \\    /   O peration     | Website:  https://openfoam.org
    \\  /    A nd           | Version:  7
     \\/     M anipulation  |
\*---------------------------------------------------------------------------*/
FoamFile
{
    version     2.0;
    format      ascii;
    class       volScalarField;
    location    "97.5";
    object      p;
}
// * * * * * * * * * * * * * * * * * * * * * * * * * * * * * * * * * * * * * //

dimensions      [0 2 -2 0 0 0 0];

internalField   nonuniform List<scalar> 
591
(
0.000123828
0.000123844
0.000123848
0.000123796
0.000123799
0.000123869
0.000123858
0.000123833
0.000116954
0.000123853
0.00012404
0.00012279
0.000123839
0.00011968
0.000123833
0.000123874
0.000123832
0.000123882
0.000121909
0.000123214
0.000123816
-3.52394e-06
0.000124035
0.000123817
0.000123991
0.00012384
0.000123954
0.00012395
0.000123854
0.000123861
0.000124011
0.000123985
0.000124005
0.000124004
0.000124006
0.000123327
0.000124001
0.000123818
0.000124029
0.000123946
0.000123896
0.000123997
0.000123848
0.000123873
0.000123994
0.000124015
0.000119185
0.00012402
0.000123852
0.000123966
0.000123971
0.000124
2.39433e-05
3.05871e-05
4.78333e-05
0.000123846
0.000124024
0.000124017
0.000124017
0.000123826
0.000123914
0.000123845
0.000123841
0.000123892
0.000122519
0.000123844
0.000123848
0.000124014
0.000120685
0.000123859
0.000123852
0.000124021
0.000123997
0.000123999
0.000124005
0.000123981
0.000123821
0.000124018
0.000123823
0.000123762
0.000123596
0.000124023
0.000123982
0.000123968
0.00012403
0.000123834
0.000123919
0.000124012
0.000123975
0.000123726
0.000123987
0.00012394
0.000123951
0.000123826
0.000124028
0.000123983
0.000123527
0.000123426
0.0001236
0.000124034
0.00012394
0.000123868
0.00012404
0.000123791
0.000124041
0.000123845
0.000123842
0.000123985
0.000124034
0.000124037
0.000123929
0.000124013
0.000123859
0.000124015
0.000124032
0.000124019
0.000123974
0.000123965
0.000123536
0.000123941
0.000123845
0.000123837
0.000123934
0.000123823
0.000123998
0.00012015
0.000124041
0.00012402
0.000123593
0.000124006
0.000123835
0.000123519
0.00012398
0.000123971
0.000124009
0.000123851
0.000122581
0.000124038
0.000123837
0.000123527
0.000123598
0.000123935
0.000124023
0.000124031
0.000124024
7.61788e-06
3.67979e-06
2.07252e-06
3.81574e-05
3.66974e-05
5.66247e-06
3.83095e-05
1.57414e-05
3.72927e-05
1.78081e-05
0.000123845
0.000123836
0.000124029
0.000124019
0.000124027
0.000124027
0.000124018
0.000124014
0.00012403
0.000124027
0.000123994
0.000124027
0.000124023
0.000124031
0.000123975
0.000123347
0.00012403
0.000122085
0.000124016
0.000124009
0.000123961
0.000123854
0.000124009
0.000124025
0.000124026
0.000123445
0.00012243
0.000123004
0.000123395
0.000124013
0.000124021
0.000123915
0.000123815
0.000124017
0.000122925
0.000123252
0.000123815
0.000124007
0.000123704
0.000124001
0.000124024
0.000124
0.000123671
0.000123806
0.000124021
0.000124025
0.000124026
0.000123828
0.000124006
0.000123824
0.000124033
0.000123838
0.000123838
0.00012403
0.00012363
0.000123806
0.000123848
0.000123489
0.000123983
0.000123635
0.000123924
0.000123942
0.000124014
0.000123401
0.000123911
0.000123799
0.000123799
0.000123981
0.000123745
0.000123895
0.000123812
0.000123726
0.000123791
0.000124033
0.000123791
0.000124032
0.000123887
0.000124012
0.000123854
0.000123856
0.000124036
0.00012374
0.000124021
0.000123729
0.000123779
0.000123843
0.000123822
0.00012386
0.000123846
0.000123617
0.000123819
0.000123774
0.000123985
0.000123838
0.000123698
0.000123975
0.000123244
0.000123812
0.000123135
0.000123023
0.000123829
0.000123793
0.000123832
0.000123828
0.000123804
0.000124036
0.000123875
0.000123948
0.00012389
0.000123879
0.000123891
0.00012399
0.000123639
0.000124031
0.000123675
0.000123562
0.000123863
0.00012401
0.000123587
0.000124025
0.000123937
0.000123946
0.000123976
0.000123855
0.000123831
0.000123669
0.000123787
0.000123827
0.00012387
0.000123932
0.000123994
0.000124013
0.000124018
0.000123772
0.000123881
0.000124005
0.000124013
0.000124006
0.000123797
0.000124021
0.000123896
0.000124008
0.000123758
0.00012402
0.000123745
0.000123996
0.000123885
0.00012383
1.16422e-05
2.1912e-05
0.000123767
0.000123851
0.000124035
0.000123778
0.000124034
0.000123861
0.00012402
0.000123996
0.000123727
0.00012399
0.000123819
0.000124032
0.000123854
-2.09549e-07
0.00012373
0.000124002
0.000123997
0.000123685
0.000123848
0.000123893
0.00012399
0.00012374
0.000124013
0.000123894
0.000123846
0.000123989
0.00012379
0.000123715
0.000123754
0.000123856
4.74846e-05
0.000124008
0.000123987
0.000123844
0.000124015
0.000123922
0.000123866
0.00012385
0.000123833
0.000124
0.000123861
0.000123765
0.0001239
0.00012377
0.000124013
0.000123777
0.000123839
0.000123873
0.000123956
1.9873e-05
2.73331e-05
3.42934e-05
9.63958e-06
0.000123817
3.30527e-05
2.60006e-05
0.000124011
1.9074e-05
1.70298e-05
3.81823e-05
7.57667e-06
3.99333e-05
5.6054e-06
4.08265e-05
3.68935e-06
4.2808e-05
1.87671e-06
3.64055e-05
2.31977e-05
2.94491e-05
1.49923e-05
0.000123702
0.000124022
0.000123885
0.000123898
0.000120848
0.000123936
0.000124017
0.000123987
0.000123782
0.000124022
0.000124029
0.000124002
0.000123999
0.000123761
0.000123834
0.000124013
0.000124019
0.000123854
0.000123716
0.000123804
0.000123363
0.000123814
0.000124039
0.000124006
0.000123845
0.000124029
0.000123686
0.000123869
0.000123646
0.000122803
0.000124
0.000124012
0.000124038
0.000123702
0.000123899
0.000123644
0.00012386
0.000123852
2.60423e-05
2.18772e-05
3.30341e-05
1.16183e-05
0.000124041
0.000123694
1.98197e-05
2.82538e-05
3.56001e-05
9.58836e-06
0.000123864
0.000123943
0.000123807
0.000123816
0.000123835
0.000123981
0.00012377
0.000123996
0.000123946
0.000123058
0.000123818
0.000123784
5.93746e-05
0.000123184
0.000124027
0.000123829
0.000123718
0.000124016
0.000124019
0.000123809
0.000123608
0.000123841
0.000123885
0.000123693
0.000123972
0.000122854
0.000123765
0.000123792
0.000123989
0.000100849
0.000123836
0.000123444
0.000123754
0.000124028
0.000123656
1.08962e-05
2.11146e-05
3.53655e-05
2.81904e-05
1.3662e-05
5.56192e-08
4.20803e-05
2.69078e-06
4.01547e-05
4.7627e-06
3.94131e-05
6.81528e-06
3.86211e-05
8.85781e-06
3.72877e-05
1.36737e-05
3.17265e-05
3.0583e-05
2.39366e-05
2.52769e-05
1.77651e-05
1.29383e-05
1.57075e-05
0.000124021
0.000102367
0.000123816
0.000123744
0.000124025
0.000123915
0.000124032
0.000123746
0.000123874
0.000123992
0.000123987
0.000123994
0.000123744
0.00012384
0.000123759
0.000123949
0.000123775
0.000124026
0.000123904
0.000123733
0.000123741
0.000123851
0.000123844
0.000124032
0.000124023
0.000124036
0.000123991
0.000124038
0.00012366
0.00012384
0.000124027
0.000123785
0.000123917
0.000123847
0.000123899
0.000123727
0.000123991
0.00012399
0.000123302
0.000121327
0.000123028
0.000123574
0.000123839
0.000123669
0.000123852
0.000124033
0.000124003
0.000123846
0.00012346
0.000123438
0.000124026
0.000123993
0.000123864
0.000123957
0.000123501
5.83015e-05
4.01129e-05
0.000123962
0.00012398
0.000123343
0.000122703
0.000123827
0.000123584
0.000123331
0.000123835
0.000123758
0.000124022
0.000123869
0.000123901
0.000118961
5.44573e-05
0.00012387
8.12446e-05
1.86219e-06
-3.80682e-07
0.000123835
0.000123803
0.000123992
0.000124036
0.000124029
0.000124026
0.000124031
0.000123822
-2.30677e-06
0.000122779
0.000123863
0.000123968
0.000121966
0.000124025
0.000124025
0.000122245
0.000123941
0.000123994
0.000121644
0.000124034
7.63172e-05
0.000124023
0.000123735
0.000123985
0.000122329
0.000123547
0.000123623
0.000123872
0.000124036
0.000123977
0.000124024
0.000124037
0.000123826
0.000116129
)
;

boundaryField
{
    back
    {
        type            empty;
    }
    ingreso
    {
        type            zeroGradient;
    }
    salida
    {
        type            fixedValue;
        value           uniform 0;
    }
    front
    {
        type            empty;
    }
    defaultFaces
    {
        type            zeroGradient;
    }
}


// ************************************************************************* //
