/*--------------------------------*- C++ -*----------------------------------*\
  =========                 |
  \\      /  F ield         | OpenFOAM: The Open Source CFD Toolbox
   \\    /   O peration     | Website:  https://openfoam.org
    \\  /    A nd           | Version:  7
     \\/     M anipulation  |
\*---------------------------------------------------------------------------*/
FoamFile
{
    version     2.0;
    format      ascii;
    class       volVectorField;
    location    "97.5";
    object      U;
}
// * * * * * * * * * * * * * * * * * * * * * * * * * * * * * * * * * * * * * //

dimensions      [0 1 -1 0 0 0 0];

internalField   nonuniform List<vector> 
591
(
(0.000836691 -6.83298e-06 1.21636e-18)
(0.000832179 -6.46597e-06 -6.61982e-19)
(0.000854331 1.68004e-05 5.70174e-20)
(0.000867125 -2.44456e-05 -1.49014e-19)
(0.000854762 -9.53752e-06 2.25437e-19)
(0.000803555 -3.86182e-05 -1.39565e-19)
(0.00056397 -0.000229661 8.05955e-19)
(0.000803772 4.35209e-06 2.10591e-18)
(0.0057242 0.00251006 9.87891e-19)
(0.000814716 -1.91251e-06 2.44639e-18)
(4.6106e-05 0.000161078 1.21782e-18)
(0.000938402 0.00139384 9.40665e-21)
(0.000801227 4.22033e-06 1.3225e-18)
(0.00160324 0.00240394 -7.87323e-19)
(0.000803299 1.45039e-06 -4.46254e-19)
(4.54299e-05 -0.000155139 2.30399e-22)
(0.000140654 0.000670029 7.04756e-19)
(0.000817712 7.93221e-05 -4.96863e-19)
(0.00189907 0.000392189 4.73715e-19)
(0.00135966 0.000256461 -2.47049e-19)
(0.000831593 -8.81597e-06 3.7307e-19)
(0.0034005 0.00655984 -8.14645e-20)
(2.33564e-05 6.41128e-05 2.70848e-19)
(0.000836088 -2.49678e-05 -4.51481e-19)
(6.52911e-06 -1.14462e-05 3.5878e-19)
(0.000791004 4.26435e-05 0)
(9.45898e-05 0.000467368 1.59919e-19)
(0.000572317 -1.14345e-06 -1.78766e-19)
(0.000764797 4.7112e-05 1.14903e-18)
(0.000806582 6.98668e-05 5.84457e-19)
(4.94791e-05 -5.49898e-06 -5.21312e-24)
(2.21631e-05 -3.92869e-05 3.52038e-19)
(2.85677e-05 -2.56751e-06 -4.64042e-20)
(3.7967e-05 -1.224e-05 0)
(4.65489e-05 -1.28575e-05 1.13101e-18)
(0.0011708 0.000139799 1.79827e-19)
(2.4008e-05 -4.23064e-06 4.46971e-20)
(0.00082425 4.54166e-07 3.13507e-23)
(2.32504e-05 3.8562e-05 2.65928e-19)
(-6.28158e-06 -6.29644e-05 -8.53538e-19)
(0.00065881 -0.000191611 9.58668e-19)
(1.85999e-05 -5.00627e-06 4.54647e-20)
(0.000813359 1.74874e-05 -1.57875e-18)
(0.00083214 4.99901e-05 -6.90884e-19)
(1.20164e-05 -5.62921e-06 0)
(4.82941e-05 3.95981e-06 8.51543e-20)
(0.00134902 0.00450321 8.92755e-19)
(6.82172e-05 1.05408e-05 8.63296e-20)
(0.00080244 1.65995e-05 0)
(0.000393859 -0.000230461 6.76946e-19)
(0.000389793 0.000266502 5.1174e-21)
(0.000403836 3.28135e-05 -1.0034e-18)
(0.00634757 0.0109404 -7.68542e-19)
(0.00622444 0.0107955 1.5286e-20)
(0.00561443 0.0103782 1.4557e-18)
(0.000805752 4.68392e-05 0)
(6.11822e-05 2.53921e-05 0)
(0.000320145 -6.34117e-06 2.5748e-23)
(5.59577e-05 6.71467e-06 -3.46326e-19)
(0.000812351 -6.99191e-06 0)
(0.000662123 2.84058e-05 3.17432e-19)
(0.000845437 2.65238e-05 2.20741e-18)
(0.000810918 3.87226e-05 -5.37631e-19)
(0.000800075 1.16554e-05 -3.15635e-19)
(0.00171347 0.000487252 5.42458e-19)
(0.000810373 3.15336e-05 -1.14667e-18)
(0.000838292 3.54542e-05 -5.23883e-19)
(7.0448e-05 -7.19651e-06 -1.73344e-19)
(0.000690219 0.00225834 0)
(0.000845222 4.89139e-05 0)
(0.000791853 2.63068e-05 -1.39242e-18)
(3.36029e-05 1.32778e-05 0)
(0.000293087 0.000263266 3.26737e-19)
(3.23985e-05 -1.53681e-05 0)
(3.44418e-05 -5.5011e-06 1.59411e-19)
(6.33302e-06 -3.47124e-05 -3.36533e-20)
(0.000802895 7.90167e-05 2.46885e-19)
(3.89738e-05 8.27807e-06 0)
(0.000811908 5.54662e-05 4.47375e-19)
(0.000781704 0.000295513 2.10649e-19)
(0.000960915 6.8129e-05 -3.97647e-20)
(3.82936e-05 1.93778e-05 -4.51689e-20)
(3.55813e-06 -1.19734e-05 0)
(0.000442838 0.000210809 1.70125e-19)
(2.68495e-06 1.64537e-05 0)
(0.000806104 4.73911e-05 -6.07484e-19)
(0.000645907 -0.000115447 0)
(5.65695e-05 -4.73356e-06 -1.74413e-19)
(1.08452e-06 -1.67772e-05 0)
(0.000836265 0.000242077 -3.41126e-19)
(2.07459e-06 -6.65807e-06 0)
(0.000432366 0.000319538 -1.34713e-23)
(0.000544751 0.000107659 0)
(0.000816092 4.41045e-05 -3.07774e-24)
(2.18481e-06 9.81097e-06 -4.21551e-20)
(0.000472964 -2.81659e-05 1.76281e-18)
(0.00101841 7.34596e-05 4.15844e-20)
(0.000785242 4.72005e-05 6.41478e-22)
(0.000747589 0.00065969 2.69405e-19)
(6.89481e-06 3.90145e-05 0)
(-6.32287e-06 -1.87736e-05 -3.12147e-19)
(-3.7166e-05 -1.9513e-05 -1.10162e-18)
(5.02987e-06 6.46772e-05 -5.96143e-19)
(0.000593692 -2.8839e-05 0)
(9.15361e-06 8.80136e-05 0)
(0.000820725 3.43944e-05 2.18124e-18)
(0.000800646 3.67403e-05 1.5337e-18)
(0.000450686 -0.000112416 0)
(3.90256e-05 0.000207503 -8.95031e-19)
(1.20821e-06 0.000151157 4.96726e-19)
(5.61603e-05 0.000390352 6.2506e-19)
(0.000311442 6.56646e-05 -9.36849e-19)
(0.00080188 1.99564e-05 1.37364e-19)
(0.000256956 -7.12256e-05 5.31013e-19)
(4.19229e-06 2.46341e-05 0)
(1.87391e-05 0.000268936 -1.0938e-18)
(0.000326174 0.000318326 -1.61651e-19)
(-1.7359e-06 -1.37797e-05 1.46507e-19)
(0.000670021 0.000805838 0)
(0.00037466 0.000380891 5.74222e-20)
(0.000825511 2.91579e-05 1.07024e-18)
(0.000799735 1.73799e-06 -2.72432e-18)
(6.41711e-06 9.30754e-06 0)
(0.000659367 -4.12629e-05 -1.12267e-19)
(0.00032402 -0.000149891 1.24271e-18)
(0.00262055 0.00081029 -3.3648e-19)
(8.10135e-06 0.00011719 -6.13052e-19)
(8.61333e-06 0.000145218 1.6193e-18)
(0.000658127 2.55803e-05 -3.89653e-20)
(5.40491e-05 -1.6413e-05 -7.49873e-19)
(0.000811961 3.90455e-05 -3.90024e-19)
(0.000708788 2.76262e-05 -4.10405e-20)
(3.16068e-05 0.000315867 -5.9697e-19)
(0.000503799 5.17665e-05 -4.93748e-19)
(4.12411e-05 -4.37118e-06 1.56091e-19)
(0.0008422 4.12958e-05 -1.08754e-18)
(0.00153154 0.000234903 -1.13642e-18)
(5.18885e-06 5.19796e-05 4.96243e-19)
(0.000813409 3.69909e-05 -5.03326e-19)
(0.000924631 0.000554406 -7.84817e-20)
(0.000149824 0.000779021 0)
(0.000601576 6.22315e-05 0)
(0.000278359 3.99641e-05 -1.60893e-18)
(5.87186e-05 5.2001e-05 -1.37358e-18)
(2.69214e-05 1.74296e-05 0)
(0.00424773 0.00740087 -1.01959e-20)
(0.00422583 0.00737248 3.16592e-20)
(0.004428 0.00757522 -4.98091e-21)
(0.00420556 0.00773345 0)
(0.00419803 0.00759926 5.77191e-19)
(0.00424469 0.00740196 -9.20225e-20)
(0.00420932 0.00804085 4.84435e-19)
(0.00429044 0.00742335 0)
(0.00420774 0.00853365 6.16725e-19)
(0.004327 0.007452 2.23924e-19)
(0.000835495 2.22358e-05 -1.37215e-18)
(0.000784158 6.16528e-05 0)
(0.00021036 3.78668e-05 1.27656e-19)
(4.45271e-05 1.2246e-05 8.7151e-20)
(7.22955e-05 3.76783e-05 6.79764e-19)
(9.87634e-05 3.22006e-05 -3.41541e-19)
(9.05e-05 -2.33561e-06 0)
(4.15654e-05 2.75329e-06 8.18053e-20)
(0.000207934 0.000120189 0)
(0.000159843 2.7483e-05 -5.24131e-20)
(0.000348339 0.000214192 -5.09084e-21)
(5.10441e-05 3.7221e-05 -4.37488e-19)
(8.34549e-05 1.94926e-05 -8.52149e-20)
(8.51766e-05 5.36508e-05 1.31146e-21)
(0.000261945 0.000359296 -6.65959e-19)
(0.000110325 0.000990789 0)
(3.83774e-05 4.68763e-05 3.42933e-19)
(0.000199727 0.00174043 0)
(0.000208977 0.000245315 7.04426e-19)
(3.04673e-05 -2.95887e-06 1.11451e-19)
(0.000494563 0.000159136 -1.72241e-19)
(0.000776641 2.78982e-05 -1.92342e-18)
(3.61941e-05 -1.76351e-06 4.84609e-24)
(0.000139821 1.26191e-05 2.24509e-19)
(0.000246662 7.89381e-05 -8.99004e-20)
(0.000883183 0.000695366 3.34833e-19)
(0.000727363 0.00163464 -9.23248e-21)
(0.000396577 0.00141848 -9.38051e-21)
(0.001031 0.000547836 0)
(8.97783e-05 -2.12484e-05 1.11829e-18)
(0.000106483 4.71006e-06 -4.42819e-20)
(0.000473479 -0.000269887 -1.13596e-18)
(0.000825142 4.35884e-05 0)
(0.000174943 -1.71857e-05 3.63178e-19)
(0.00030588 0.00129705 0)
(0.00108927 0.00077393 -7.29957e-20)
(0.000827031 2.76351e-05 -1.86479e-19)
(6.51602e-05 -2.40817e-05 -2.99863e-19)
(0.000841975 0.000314557 -2.07968e-20)
(4.42402e-05 -2.11304e-05 -5.99253e-19)
(0.000227926 0.000165017 8.63588e-20)
(0.000232111 0.000303525 -3.44896e-19)
(0.000898536 0.000253317 0)
(0.000826899 5.77597e-05 0)
(0.000267311 0.000121623 1.76785e-19)
(0.000232079 -1.83883e-05 7.43854e-24)
(0.000185133 0.000197145 0)
(0.000307124 0.000645028 -5.55526e-21)
(0.000362688 -3.15285e-05 0)
(0.000382727 0.000598156 0)
(0.000103758 7.27809e-05 -1.3462e-21)
(0.000810661 3.11656e-05 -9.57101e-19)
(0.000805267 1.70604e-05 7.967e-19)
(0.000123111 4.65316e-05 -1.49801e-19)
(0.000973592 0.00014592 8.50062e-20)
(0.000841305 3.80339e-05 3.33533e-19)
(0.0008226 3.51679e-05 -2.93967e-19)
(0.00103352 0.000421217 0)
(0.000449103 0.000108165 6.24198e-19)
(0.000914197 0.000323841 2.09058e-20)
(0.000593122 0.000150339 0)
(0.00027527 0.000443602 4.09513e-19)
(0.000263267 0.000207854 -8.43894e-20)
(0.00110482 0.000384827 -7.81817e-19)
(0.000641089 0.000102452 -1.7922e-19)
(0.000822527 7.67508e-05 -7.45744e-21)
(0.000845867 2.29799e-05 9.39909e-20)
(5.20252e-05 -8.5361e-05 -1.98053e-18)
(0.000746417 0.000379531 2.19159e-19)
(0.000686576 6.93958e-05 2.30556e-20)
(0.000717055 0.00027897 1.62254e-23)
(0.000740618 0.00046169 -4.09538e-19)
(0.000853868 1.59446e-05 9.06714e-20)
(6.77618e-05 7.1312e-05 0)
(0.000663782 0.000424978 -4.65758e-20)
(0.000181533 8.26277e-05 0)
(0.000374228 0.00050154 -2.64755e-19)
(0.000312624 0.000156803 0)
(0.000686051 0.000205754 3.55089e-19)
(0.000660447 0.000259482 -4.37088e-20)
(7.90897e-05 9.66675e-05 6.18926e-19)
(0.000886496 9.72596e-05 -1.63848e-18)
(5.16323e-05 1.75344e-05 2.57093e-19)
(0.000899206 7.39502e-05 -1.68587e-18)
(0.000850114 9.10134e-05 1.63022e-19)
(0.000815003 3.75097e-05 1.91194e-18)
(0.000822448 3.31097e-05 -1.32794e-19)
(0.000746997 7.04147e-05 0)
(0.000805209 1.94445e-05 8.95278e-19)
(0.000973811 0.000238022 -4.26927e-19)
(0.000789669 0.000100968 -4.83546e-19)
(0.000783738 0.000237839 -8.80873e-20)
(0.000194648 -0.000196224 -2.07479e-18)
(0.000764601 8.17565e-05 8.87185e-19)
(0.000644416 0.000591441 0)
(5.72338e-05 -0.000122664 0)
(0.00123028 0.000476399 4.97111e-19)
(0.000549471 -5.58769e-05 -3.27048e-18)
(0.00135569 0.000417799 5.76231e-19)
(0.0012548 0.000719842 -6.38783e-20)
(0.000817323 3.44411e-05 -2.1267e-19)
(0.000844205 6.66892e-05 -1.42769e-18)
(0.000814429 2.77164e-05 1.587e-18)
(0.000814918 2.047e-05 9.77662e-20)
(0.0006759 0.000353432 -4.40243e-20)
(9.8683e-05 0.000112904 8.90244e-24)
(0.000766449 -2.87888e-05 2.64886e-19)
(0.000207406 -0.000259448 -7.30952e-19)
(0.000640944 0.000182357 0)
(0.000726679 5.1273e-05 9.89983e-20)
(0.000720842 9.68646e-06 -3.80654e-19)
(0.00039729 0.000162591 3.93222e-20)
(0.000813282 0.00051047 -1.65418e-19)
(0.0001445 6.38839e-05 4.07736e-25)
(0.000820909 0.000412985 0)
(0.000990333 0.000315634 4.15604e-20)
(0.000770059 -6.0765e-05 -6.15866e-19)
(0.000356012 9.27783e-05 4.97647e-19)
(0.000905534 0.000427949 0)
(4.42296e-05 2.67306e-05 1.33659e-19)
(0.000495515 0.000261186 2.13873e-19)
(0.000548544 -0.00017201 -7.09143e-19)
(9.21486e-05 -0.000175748 -1.05562e-18)
(0.000827066 4.09754e-05 -4.86508e-19)
(0.000760183 -6.2485e-05 -1.94511e-19)
(0.000551003 0.000728769 -1.17401e-18)
(0.000855939 4.60974e-05 -6.74351e-20)
(0.000563991 -9.98457e-06 1.28206e-18)
(0.00071955 9.94972e-05 2.27686e-20)
(0.000545001 0.00020341 -1.65625e-19)
(2.34754e-05 -1.85453e-05 -8.75506e-20)
(0.000148984 -6.142e-05 2.40506e-18)
(1.21513e-05 5.324e-07 -1.94781e-19)
(0.000843821 0.000119565 3.63599e-19)
(0.000682753 0.000134789 0)
(0.000169198 -0.00011256 -1.04779e-18)
(0.000110489 -2.81935e-05 3.12676e-19)
(9.12251e-05 -4.15085e-05 1.5488e-23)
(0.000811468 0.00010551 -3.19135e-19)
(0.000144171 -2.41851e-05 0)
(0.000597442 0.00023798 0)
(0.000111387 0.0003217 -3.6273e-19)
(0.000869635 0.000101757 2.10758e-18)
(9.87771e-06 7.02069e-07 0)
(0.000889326 5.20747e-05 0)
(3.47099e-05 -2.4606e-05 0)
(0.0008152 4.8981e-05 -4.46619e-21)
(0.000782319 -2.8486e-05 0)
(0.00426085 0.00740759 8.07064e-20)
(0.00436292 0.00748806 1.4364e-19)
(0.000842678 -1.80288e-05 0)
(0.000798959 -3.3628e-05 8.11749e-19)
(0.000151416 0.000114648 1.49156e-19)
(0.000863412 6.66813e-05 8.07986e-19)
(0.000126398 9.20297e-05 2.34308e-20)
(0.000792841 -2.00082e-05 6.2397e-19)
(3.03289e-05 7.75775e-06 0)
(2.19705e-05 -1.12023e-05 -4.48302e-20)
(0.0009078 4.72432e-05 -4.86347e-19)
(2.42472e-05 -2.78703e-05 -6.69539e-19)
(0.000770361 0.000126984 -4.23065e-20)
(0.000169263 0.000152367 -1.88033e-19)
(0.000813778 3.20063e-05 0)
(0.00468253 0.00815358 9.00705e-22)
(0.000194227 0.000791805 3.3335e-19)
(9.6751e-05 -6.80807e-05 -9.14169e-19)
(4.91944e-05 -3.45443e-05 -1.16833e-18)
(0.000589687 1.30419e-05 1.89636e-20)
(0.000585685 0.000403656 0)
(0.000425644 0.000445692 -2.56244e-19)
(6.46984e-05 -6.43136e-05 1.18328e-18)
(0.000551247 -1.43681e-06 7.67804e-20)
(3.64242e-05 9.39882e-07 4.06932e-19)
(0.000725339 -4.16451e-05 1.17111e-18)
(0.000812906 3.24462e-05 -6.03744e-19)
(4.79289e-05 -5.37021e-05 1.7088e-18)
(0.000841126 -4.26977e-05 -6.26055e-24)
(0.000565758 6.15225e-06 -3.75088e-20)
(0.000877928 7.21842e-05 0)
(0.00084652 5.17484e-05 0)
(0.00591559 0.00724351 2.59878e-19)
(1.23929e-05 -3.00224e-06 -1.19549e-19)
(9.33926e-05 -0.000116429 7.72748e-19)
(0.000738909 0.000114254 -6.96147e-19)
(1.49746e-05 2.6808e-07 2.01469e-19)
(0.000653531 -3.60002e-05 -7.23497e-19)
(0.000756247 3.54061e-05 1.55738e-18)
(0.000716184 0.000157285 -3.55297e-19)
(0.000807328 -1.15861e-05 3.60751e-19)
(6.22285e-05 -3.69802e-05 1.11554e-18)
(0.00080166 6.48698e-06 -3.22555e-19)
(0.000874985 3.59056e-05 0)
(0.000551331 0.000301479 4.2086e-20)
(0.000867962 4.94377e-05 -9.47322e-19)
(1.31617e-05 2.91067e-06 9.11192e-19)
(0.000861788 4.11055e-05 9.65861e-19)
(0.000863552 2.55111e-05 -9.6427e-19)
(0.00076628 8.92957e-07 -5.68927e-19)
(0.000549681 -8.38739e-05 -5.25422e-19)
(0.00432992 0.00745421 2.47566e-19)
(0.00422218 0.00752828 -2.78859e-19)
(0.00422046 0.00758585 2.6679e-19)
(0.00425646 0.00741138 1.97986e-19)
(0.00084514 -3.7831e-05 1.44212e-19)
(0.00447698 0.00751489 0)
(0.00440434 0.00751872 -3.86931e-19)
(2.12861e-05 -1.42987e-07 -9.97846e-19)
(0.00417011 0.00746851 -6.33688e-20)
(0.0041456 0.00743179 -2.21523e-19)
(0.00602918 0.0106049 0)
(0.00654024 0.0111868 3.71498e-20)
(0.0060091 0.0105746 0)
(0.00655594 0.0112105 1.30935e-19)
(0.0059965 0.0105986 2.69647e-19)
(0.00659264 0.0112274 1.24679e-20)
(0.00593538 0.0106113 -7.76682e-19)
(0.00662291 0.0111463 8.15925e-21)
(0.00390341 0.00919739 -1.90787e-19)
(0.0041863 0.0074877 3.87467e-21)
(0.00423714 0.00755114 7.93636e-20)
(0.0041501 0.00743409 4.12057e-20)
(0.000895331 0.000196473 4.46555e-20)
(6.81017e-06 9.46394e-07 0)
(0.000726833 -0.000101815 0)
(0.000657318 5.72911e-05 0)
(0.00244562 0.00111829 4.23194e-21)
(0.000758689 -3.04397e-05 1.72506e-19)
(3.51572e-05 4.28521e-06 4.53881e-20)
(5.48821e-06 -2.14827e-05 1.65232e-18)
(0.000862327 4.8151e-06 0)
(2.42311e-05 1.053e-05 -1.91653e-19)
(0.000139092 0.000215806 0)
(1.11489e-05 -8.05599e-07 0)
(8.65047e-06 -9.01158e-07 0)
(0.000837403 0.000148831 1.13726e-20)
(0.000811056 -1.81142e-05 1.79523e-19)
(3.84329e-05 0.00025693 -1.02029e-23)
(0.000156314 0.000266707 -1.84131e-18)
(0.000612279 0.000326004 -8.56694e-20)
(0.000902999 0.000113765 6.0198e-19)
(0.0005994 -0.000153039 6.74512e-19)
(0.000358232 0.00111552 0)
(0.000482167 0.000575377 2.71442e-18)
(8.81952e-05 0.000138045 -1.80251e-18)
(1.46511e-05 -2.55368e-07 0)
(0.000822706 -6.39096e-05 3.64041e-20)
(1.37963e-05 3.12893e-05 1.64387e-18)
(0.000894255 3.58589e-05 2.71024e-19)
(-3.18378e-05 7.76762e-05 3.81132e-18)
(0.000926078 4.18603e-05 -2.68894e-19)
(0.00133442 0.000154936 7.47115e-19)
(2.86895e-05 -9.49725e-06 8.25388e-20)
(3.04349e-05 2.2242e-06 -8.58788e-19)
(5.07563e-05 0.000134378 0)
(0.0009201 8.93371e-05 5.98181e-19)
(0.000499298 0.000366609 2.37064e-19)
(0.000613941 1.7258e-05 -3.88896e-20)
(0.000788311 5.31838e-06 2.57273e-19)
(0.000729117 -0.000139311 0)
(0.0063203 0.0108956 -1.68138e-19)
(0.00637867 0.010973 4.05863e-19)
(0.00616001 0.01073 -6.1842e-19)
(0.00650124 0.0111321 -8.09911e-20)
(3.16236e-05 0.000111995 8.00249e-19)
(0.000930165 6.175e-05 1.44372e-22)
(0.00641129 0.0110055 -3.86487e-19)
(0.00628134 0.0108454 5.48321e-19)
(0.00608005 0.0106717 -4.16781e-19)
(0.00652176 0.0111646 -6.81507e-20)
(7.8763e-05 0.000490339 -2.01757e-20)
(4.69654e-05 -0.000191322 -7.92563e-19)
(0.000638857 -1.97308e-05 -7.66498e-19)
(0.000731633 0.000219461 0)
(0.000800306 1.84415e-07 0)
(0.000189592 0.000385516 3.36191e-19)
(0.000603433 0.000510825 -5.41688e-19)
(5.44449e-06 -9.59038e-07 1.78328e-19)
(0.000200101 0.000466602 -7.38165e-19)
(0.00102304 0.000979975 -1.12666e-19)
(0.000754463 0.000166444 0)
(0.000796025 0.000184921 1.30971e-19)
(0.00634936 0.00588339 1.13183e-18)
(0.000735937 0.00113122 8.26432e-20)
(3.5259e-05 3.41748e-05 -7.44411e-20)
(0.000807849 1.09106e-05 0)
(0.00087047 2.26472e-05 -3.56775e-20)
(2.90151e-05 2.05441e-06 -1.96661e-19)
(2.5324e-05 3.38503e-06 1.9293e-19)
(0.000834813 1.24773e-05 5.37004e-19)
(0.000985659 0.000114059 6.58055e-19)
(0.000535401 4.63535e-05 0)
(0.000221503 -0.000268281 -3.98118e-19)
(0.000920745 0.000143013 3.89438e-19)
(2.54083e-06 -4.62572e-05 2.02915e-19)
(0.00145425 0.000442669 -2.58024e-18)
(0.000560409 -1.33744e-05 0)
(0.000800884 0.000142071 3.75326e-19)
(9.62424e-05 0.0003866 0)
(0.00118876 0.00816145 4.62014e-19)
(0.000497562 0.000497306 -1.22416e-18)
(0.000540583 0.00101787 -1.83699e-19)
(0.000888609 1.37031e-05 -1.46002e-19)
(1.06885e-05 2.20844e-05 0)
(0.000962135 7.82959e-05 6.11382e-19)
(0.00410618 0.00739506 8.14392e-20)
(0.00417094 0.00747303 4.73161e-20)
(0.00450077 0.00751756 4.54053e-19)
(0.00444591 0.00754335 -3.29087e-19)
(0.00647515 0.0111091 8.10682e-20)
(0.00391484 0.00714602 -9.53814e-22)
(0.00550773 0.00780037 -5.64704e-19)
(0.00409787 0.00737157 5.21892e-21)
(0.00518898 0.00786012 5.11643e-19)
(0.00407966 0.00733995 -4.87346e-20)
(0.00495431 0.00771966 0)
(0.0040849 0.00736424 -8.56754e-20)
(0.00474315 0.00759051 4.92491e-19)
(0.00409813 0.00737582 8.75287e-20)
(0.00457587 0.00753014 0)
(0.0042844 0.00742182 1.39757e-19)
(0.00423864 0.00759739 5.80334e-19)
(0.00446842 0.00752886 -5.54357e-19)
(0.00438857 0.00750615 3.71338e-19)
(0.0042273 0.00752422 3.22867e-19)
(0.00643048 0.0110423 -4.97604e-21)
(0.00411761 0.00740115 3.11639e-20)
(0.00645862 0.0110722 0)
(2.04119e-05 4.45731e-06 -1.89791e-19)
(0.00200155 0.0065468 2.28157e-19)
(0.00083819 -6.00922e-05 1.09649e-19)
(0.000852449 1.76458e-06 0)
(7.46317e-07 4.91467e-07 -3.98965e-19)
(-3.28536e-05 -8.17266e-05 6.90903e-19)
(2.31664e-05 5.20343e-05 2.08828e-18)
(0.000838335 0.000186806 -9.00346e-20)
(0.00080158 8.30016e-06 7.06124e-19)
(1.87862e-07 3.33811e-08 3.09873e-19)
(1.33863e-05 -2.81594e-05 -1.84494e-18)
(0.000763655 2.66431e-05 1.63092e-19)
(0.000873033 0.000125473 -3.07867e-20)
(0.000801038 -7.12325e-06 1.48077e-19)
(0.000433436 0.000678992 0)
(7.11198e-06 -0.000133307 1.15096e-18)
(0.000874633 1.2187e-07 1.52471e-19)
(1.79564e-05 2.10695e-05 0)
(0.000119798 0.000553689 -6.31077e-19)
(0.000614056 0.000584696 1.31753e-18)
(0.000333034 0.000757557 0)
(0.000802135 -1.45147e-05 0)
(0.000801801 3.07932e-06 1.17668e-18)
(1.50248e-05 4.46461e-05 -3.51373e-18)
(1.39929e-05 5.62323e-06 3.73488e-19)
(0.000116521 0.000137094 0)
(3.4624e-05 -3.843e-05 0)
(5.88743e-05 0.000106383 2.00929e-19)
(0.000943015 0.000190522 3.50298e-19)
(0.000801064 1.47716e-05 -1.39488e-18)
(2.0689e-05 2.96084e-05 0)
(0.000413661 3.11977e-06 -6.04471e-20)
(0.000799812 3.5647e-05 -1.56293e-19)
(0.000850168 4.73272e-05 1.06498e-18)
(0.000253462 0.000542311 6.32037e-19)
(0.000884378 0.00015784 0)
(1.33296e-05 -1.95227e-05 5.38412e-19)
(1.40049e-06 -2.3621e-06 -3.19849e-19)
(0.000945023 3.46356e-05 0)
(0.00104781 0.00227039 0)
(0.000905735 2.45454e-06 0)
(0.00100756 0.00020888 4.2701e-19)
(0.000818708 -3.72291e-05 -2.84172e-19)
(0.000942508 0.000112812 -6.84508e-19)
(0.000801192 3.63652e-06 0)
(4.01707e-05 6.32766e-05 -1.71506e-19)
(0.00017474 0.000322689 1.0808e-18)
(0.000800903 1.35306e-05 -2.46528e-23)
(0.00110647 0.000209291 -6.68495e-19)
(0.00108837 0.000129186 0)
(1.86744e-06 3.89322e-06 2.50938e-19)
(1.42652e-05 -1.24347e-05 -1.94244e-19)
(0.000553076 4.7334e-05 6.94769e-21)
(-6.84862e-06 -6.05351e-05 0)
(0.00107577 0.000257017 9.49604e-19)
(0.00502872 0.00974817 -2.82864e-19)
(0.00312151 0.00961673 1.27224e-18)
(1.70195e-05 -9.26478e-05 -1.91251e-19)
(3.71861e-05 -7.05112e-05 1.85875e-18)
(0.00119111 0.000257919 1.67283e-19)
(0.00133142 0.00107589 2.34018e-19)
(0.000810579 3.0639e-06 -7.36347e-19)
(0.000198996 0.000949143 -2.38177e-19)
(0.000819417 0.000946298 -2.18519e-19)
(0.000800346 -2.04329e-06 0)
(8.173e-05 0.000610452 0)
(9.43995e-05 0.00027691 -3.58454e-23)
(0.000719812 -4.76064e-05 -1.67348e-23)
(0.000827017 6.95257e-05 1.52547e-19)
(0.00263217 0.00206688 -1.23111e-18)
(0.00176062 0.00923797 -1.17176e-19)
(0.000834329 7.05627e-05 4.92142e-19)
(0.00631923 0.004053 -1.76157e-19)
(0.00672086 0.0115572 -1.36565e-20)
(0.00473408 0.00784379 4.93355e-21)
(0.000805583 1.35808e-05 -2.16555e-18)
(0.000843145 6.77979e-07 7.65779e-24)
(5.40248e-06 -5.40085e-06 -3.47892e-19)
(4.51055e-05 8.33936e-05 -3.49158e-19)
(6.20254e-05 0.000260757 8.74993e-19)
(8.85106e-06 1.37067e-05 4.90233e-19)
(8.97508e-05 0.00022299 3.69647e-19)
(0.000819627 1.52217e-05 0)
(0.00534818 0.00949235 1.94953e-20)
(0.00154695 0.000638613 -2.61139e-20)
(0.000819283 4.02241e-05 3.60044e-19)
(1.61421e-05 -7.25463e-05 0)
(0.00184837 0.000749962 5.45861e-19)
(7.31657e-06 5.87273e-06 -2.70059e-19)
(3.0735e-05 2.51403e-05 9.71478e-20)
(0.0013355 0.00139843 6.36498e-19)
(0.00073932 4.97658e-05 1.83037e-19)
(1.94103e-06 -7.83402e-07 -1.70141e-19)
(0.00206469 0.00156315 -1.05558e-18)
(0.000126743 0.000171667 -8.18501e-19)
(0.00392024 0.00848826 -1.09066e-18)
(3.29196e-06 9.84929e-07 8.81118e-20)
(9.71501e-05 -4.53369e-05 -1.25807e-18)
(3.55942e-05 -5.37501e-05 4.05496e-20)
(0.00153141 0.000988296 0)
(0.00104322 0.000140931 -4.00781e-22)
(0.000454544 0.000846325 -4.01942e-20)
(0.000803405 2.76338e-05 -2.33992e-19)
(8.69176e-05 0.000178026 7.3583e-19)
(1.98111e-05 -5.35347e-05 4.03852e-19)
(1.62577e-05 1.31014e-05 -9.4677e-20)
(2.85845e-05 8.52057e-05 -3.2018e-19)
(0.000215029 -0.00017285 -5.45505e-19)
(0.00325081 0.00346712 2.9026e-21)
)
;

boundaryField
{
    back
    {
        type            empty;
    }
    ingreso
    {
        type            fixedValue;
        value           uniform (0.0008 0 0);
    }
    salida
    {
        type            zeroGradient;
    }
    front
    {
        type            empty;
    }
    defaultFaces
    {
        type            noSlip;
    }
}


// ************************************************************************* //
