/*--------------------------------*- C++ -*----------------------------------*\
  =========                 |
  \\      /  F ield         | OpenFOAM: The Open Source CFD Toolbox
   \\    /   O peration     | Website:  https://openfoam.org
    \\  /    A nd           | Version:  7
     \\/     M anipulation  |
\*---------------------------------------------------------------------------*/
FoamFile
{
    version     2.0;
    format      ascii;
    class       surfaceScalarField;
    location    "55.5";
    object      phi;
}
// * * * * * * * * * * * * * * * * * * * * * * * * * * * * * * * * * * * * * //

dimensions      [0 3 -1 0 0 0 0];

internalField   nonuniform List<scalar> 
1111
(
6.47348e-09
1.32173e-08
-1.5832e-08
-3.85882e-09
6.54945e-09
-1.18007e-08
1.17247e-08
-1.47277e-08
5.11089e-09
9.30032e-09
3.16524e-10
4.77744e-10
-5.56061e-10
-1.4213e-08
1.42913e-08
-1.41232e-08
1.38683e-08
7.32653e-10
-1.6398e-09
1.48848e-08
2.1836e-09
-3.79388e-09
9.74524e-09
-1.0598e-08
4.64668e-09
-6.69214e-09
-1.26179e-08
1.25854e-08
6.72457e-09
-5.04794e-08
-2.59054e-08
7.63849e-08
-8.11412e-09
7.58881e-09
7.07475e-09
3.55316e-09
3.45276e-10
-3.63237e-09
-2.66066e-10
1.56208e-08
-1.5915e-08
-2.30276e-08
2.33218e-08
-9.63385e-09
-7.92337e-09
8.7849e-09
8.77232e-09
-3.52833e-08
1.75965e-08
-3.23452e-08
5.0032e-08
9.53107e-09
-1.94715e-09
-1.42761e-08
-1.7525e-09
2.44088e-09
-3.70198e-09
3.0136e-09
-3.75454e-09
1.32943e-08
1.94376e-09
-1.14835e-08
8.84607e-09
-2.39717e-09
-1.50341e-08
8.58518e-09
3.77064e-08
-3.05594e-08
-7.14692e-09
-1.93675e-08
1.73864e-10
1.74108e-08
1.78289e-09
-7.83518e-10
4.07018e-09
-1.78934e-08
1.46067e-08
-6.12187e-08
-3.96261e-09
6.51813e-08
1.5929e-10
-1.29545e-09
-3.63992e-10
1.50015e-09
-1.37829e-09
-1.35285e-08
-1.72434e-10
-3.16974e-10
2.77361e-10
2.12046e-10
-1.01186e-08
-8.19859e-09
1.25834e-08
5.73381e-09
7.245e-10
-2.14678e-09
-8.44777e-09
9.87005e-09
8.05725e-09
9.34771e-10
-8.97232e-09
-1.9699e-11
-2.84521e-09
-7.83668e-09
1.08999e-08
-2.17984e-10
1.13729e-08
-6.15328e-10
-1.91151e-09
-9.85463e-10
9.65845e-10
7.06846e-11
-5.10675e-11
-2.70546e-10
8.59176e-10
4.27301e-10
-1.01593e-09
-5.87105e-10
-4.10651e-11
6.25416e-10
2.75414e-12
1.08452e-11
-9.95482e-10
1.00156e-10
8.84481e-10
-5.94206e-11
-9.15198e-10
8.01841e-10
-1.84294e-08
-1.73994e-09
-4.97935e-10
5.41486e-11
-1.43319e-10
1.34136e-08
-1.32711e-08
3.92769e-09
-4.21037e-10
6.31429e-10
3.97603e-10
-6.07994e-10
-3.77189e-10
-2.24604e-09
1.73402e-09
8.89208e-10
-2.14496e-09
9.8011e-09
-1.145e-08
-3.72163e-10
-1.94158e-10
6.83859e-11
-8.80034e-09
1.01598e-08
-9.47355e-09
1.20194e-08
-1.70649e-08
4.94182e-09
1.03711e-10
8.49976e-11
-2.02803e-10
-2.54358e-10
2.50498e-10
8.83473e-10
-1.68126e-10
-5.96013e-08
7.42947e-08
-1.46934e-08
1.13116e-09
-3.43592e-10
-1.29754e-09
5.0997e-10
1.11432e-09
1.03159e-08
-1.37317e-08
2.3015e-09
-1.06369e-09
7.13565e-09
-8.60558e-09
2.53363e-09
-6.51641e-09
5.76296e-09
5.51729e-09
-4.76384e-09
-7.20769e-09
-2.13776e-09
2.05792e-09
7.28753e-09
-1.84562e-10
-9.09241e-08
9.13099e-08
-2.01228e-10
-2.58929e-10
-8.97646e-08
9.01726e-08
-1.49015e-10
8.30924e-08
-1.49887e-09
1.15239e-10
-8.17088e-08
-3.13247e-09
-2.22351e-10
7.83614e-10
9.06239e-10
-5.58696e-10
4.01289e-09
-1.58548e-09
3.31074e-09
-5.73815e-09
-1.08328e-09
9.90186e-10
-1.49783e-08
6.61603e-09
9.37092e-09
9.89598e-10
-1.00779e-08
-2.82657e-10
-6.268e-09
1.30177e-08
1.37458e-09
-8.1243e-09
1.43212e-08
-4.19731e-09
3.38874e-09
-1.35127e-08
1.54246e-08
1.73069e-09
-1.72645e-09
-4.68315e-10
-1.99543e-08
-7.21399e-09
2.76366e-08
1.38888e-08
-8.36791e-09
-2.13846e-09
7.72004e-09
-1.18496e-08
-9.02375e-11
2.05266e-10
-1.41256e-09
-3.64304e-08
-2.3171e-08
8.08496e-09
1.03605e-10
3.83081e-09
-7.00205e-09
1.08104e-08
6.35141e-09
-6.73653e-10
3.79388e-10
5.43299e-10
-2.49034e-10
5.89802e-09
-4.6615e-09
3.57643e-09
-4.81295e-09
-5.93961e-10
-6.98666e-10
2.97145e-10
7.78316e-10
-7.19225e-10
-1.16354e-10
-1.07506e-09
9.2087e-10
-1.77412e-08
2.49052e-09
1.48462e-09
1.37661e-08
2.81321e-10
-7.91998e-10
-1.62977e-10
-3.93449e-09
-1.48688e-08
1.06204e-09
5.66283e-09
1.18518e-08
-5.23428e-09
-1.22804e-08
1.64624e-08
5.87527e-10
-1.59303e-08
-1.11962e-09
-7.58148e-10
5.30054e-10
6.07482e-10
-7.26411e-10
3.83725e-10
3.42685e-10
-7.18994e-09
-3.73133e-09
4.40487e-09
-3.29365e-10
4.8463e-10
-1.55265e-10
1.31183e-09
-1.53649e-08
-8.32626e-10
9.17832e-09
-1.04907e-08
-1.10283e-09
-8.42765e-10
1.26721e-08
4.3912e-09
-4.13308e-09
-1.29302e-08
2.11291e-10
7.00897e-09
-7.72602e-09
6.48001e-09
-1.86042e-09
-8.6126e-09
7.90851e-09
2.56451e-09
-1.78792e-09
6.13971e-10
-1.36948e-08
-1.96043e-10
-1.33322e-10
-2.55317e-10
1.07654e-09
-8.02891e-09
7.4024e-10
1.73201e-08
-1.59789e-09
-1.33521e-08
1.46244e-08
-1.27234e-09
1.20541e-08
1.40745e-08
-1.55954e-08
-1.05331e-08
-7.22256e-10
1.25284e-09
-5.30582e-10
9.95865e-10
-1.21042e-09
2.14552e-10
1.58761e-09
-2.0945e-09
5.06888e-10
1.70686e-09
-1.41213e-09
-2.94737e-10
-1.1183e-08
5.03495e-10
1.06795e-08
2.40532e-09
-6.9846e-10
8.90441e-09
-1.52402e-08
6.85314e-09
-8.17215e-09
6.1443e-11
3.89541e-09
-4.0369e-10
-2.7506e-09
2.81204e-09
-7.07572e-09
8.40261e-09
-1.32689e-09
-7.81408e-10
4.1442e-09
6.50103e-10
1.72363e-08
-1.45162e-08
-1.60576e-09
-5.6217e-09
5.22995e-09
-1.19374e-09
-2.37627e-10
6.35122e-09
-6.37806e-09
2.68414e-11
7.02192e-09
4.39339e-09
1.531e-10
-1.59522e-08
1.04568e-08
1.75495e-08
5.70005e-09
8.33084e-09
8.25654e-09
-6.8229e-09
1.01243e-09
-1.21954e-08
1.02277e-09
4.91184e-10
-1.27731e-08
3.2502e-09
-4.38159e-10
1.26118e-08
-1.20243e-08
-1.61821e-10
-1.00043e-09
-1.37641e-08
7.27336e-09
8.69959e-10
-3.65462e-11
-8.92161e-09
5.15699e-09
-3.10278e-08
-1.25204e-08
-2.59451e-09
1.35079e-09
1.38994e-08
1.09465e-08
-1.06484e-08
-1.41975e-08
1.57908e-08
-3.12182e-09
-1.2669e-08
1.6931e-09
3.88613e-09
-1.3568e-09
-9.59266e-10
-9.85302e-10
1.30364e-09
6.40927e-10
-2.82618e-10
4.09226e-10
4.16689e-10
6.21361e-08
-6.21613e-08
2.51941e-11
6.20558e-08
-6.23598e-08
3.04079e-10
8.37065e-10
6.4751e-08
-6.55797e-08
8.28673e-10
6.41414e-08
6.09585e-10
-2.23707e-10
-6.65278e-08
9.48099e-10
-6.20436e-08
6.19102e-08
1.33474e-10
1.31972e-09
-6.78475e-08
-6.22027e-08
1.59074e-10
1.22287e-08
-1.01558e-09
1.62569e-09
-3.71756e-09
3.10745e-09
4.06645e-10
-1.26804e-09
1.09238e-09
-7.59658e-10
1.46827e-09
-1.7349e-09
1.02628e-09
1.51773e-09
-1.67285e-09
3.60386e-10
-9.01663e-11
-3.35201e-09
3.00439e-09
-2.25478e-09
2.6024e-09
-7.56381e-10
-2.84268e-09
2.58348e-09
-3.78753e-09
-5.63782e-09
6.3864e-10
-7.17704e-10
1.39009e-09
1.17057e-09
-6.587e-09
8.01183e-09
2.96855e-09
2.01448e-08
-4.35403e-09
-7.97601e-10
3.00369e-10
1.13587e-09
-1.00679e-08
-2.63625e-08
5.4472e-09
-4.43844e-09
-3.11801e-09
2.10925e-09
1.29927e-10
1.65061e-11
4.78983e-10
-2.75523e-09
3.4738e-09
8.70755e-09
8.71696e-10
-4.85897e-10
2.19867e-09
-2.46916e-09
2.15981e-09
1.47653e-08
1.32086e-08
-2.69879e-08
3.25408e-08
6.21763e-09
-2.2863e-08
-1.03425e-08
1.81893e-08
-1.77578e-08
1.05149e-08
-2.22279e-10
-6.7307e-11
-1.38326e-09
-1.86041e-09
-2.75865e-09
3.89831e-09
1.48032e-08
-6.00926e-10
-1.35883e-08
-1.5559e-10
-2.71665e-09
2.95566e-11
1.5427e-08
1.75276e-08
1.36467e-08
6.87786e-10
-1.55968e-09
-1.27748e-08
-1.79666e-09
6.01836e-09
1.23166e-08
-7.12656e-10
-1.20298e-09
-3.53452e-09
2.73445e-09
3.80446e-09
2.43663e-09
1.42285e-08
4.13763e-09
-1.3975e-08
1.76313e-08
-1.76613e-09
2.76949e-09
-3.58298e-09
1.87898e-09
-4.64385e-09
1.29046e-08
-1.20152e-08
-1.39444e-08
5.33412e-10
8.76718e-09
-1.88796e-09
1.58515e-09
1.69289e-09
-8.69594e-09
6.16819e-10
-4.44127e-09
-6.05245e-09
1.22089e-08
-1.48524e-08
1.337e-09
1.66534e-09
-2.20109e-09
1.65305e-08
-1.59948e-08
-9.80748e-10
1.40265e-08
2.87859e-09
-4.1778e-09
-1.3941e-08
7.34848e-09
-1.7092e-08
-8.01427e-09
6.57604e-09
5.85757e-09
1.43893e-08
-9.67048e-09
3.12604e-09
9.10896e-09
9.87066e-09
3.84122e-09
-4.1265e-09
2.14915e-08
-1.88822e-08
4.73922e-09
-1.01971e-08
2.21969e-09
5.49977e-09
1.36162e-08
-1.05676e-10
1.26136e-08
-1.34887e-08
-1.76228e-09
2.31317e-09
-1.40211e-09
8.51223e-10
1.08498e-08
-6.38451e-09
7.3865e-09
-1.06007e-08
1.39324e-09
-4.75361e-09
1.12976e-08
-1.17783e-08
-7.49498e-09
9.04399e-09
9.30083e-09
1.27155e-08
8.83442e-10
-1.37046e-08
1.64606e-09
8.28154e-10
-1.09415e-08
-6.71539e-09
1.01619e-08
-1.67009e-09
2.52276e-09
-8.87062e-09
4.79683e-09
-5.14453e-09
1.13533e-08
-3.49132e-09
-1.15378e-08
3.67585e-09
-4.51336e-09
1.1113e-08
2.05094e-09
1.18026e-09
-5.06779e-09
-1.75245e-08
1.03851e-08
1.22072e-08
8.38135e-10
-1.08285e-08
-9.79626e-09
1.5557e-08
1.23424e-08
2.77932e-09
-9.62193e-09
-1.32286e-08
-2.77466e-10
-1.2623e-08
2.19614e-10
-6.99241e-10
1.13795e-08
1.24334e-08
-8.17003e-09
1.63419e-08
-1.57163e-08
3.51211e-09
-4.49618e-10
1.69853e-09
1.25172e-08
-3.87139e-09
-1.25421e-08
-5.11987e-09
1.05099e-09
4.56006e-09
1.19987e-08
-7.34899e-09
7.97565e-10
-1.34132e-09
1.36203e-09
-1.78299e-09
6.03294e-09
2.59735e-08
-3.82209e-10
-1.14508e-08
1.1833e-08
2.83212e-08
-2.21144e-08
2.19431e-08
1.94573e-08
-1.26215e-08
-2.63508e-09
1.48954e-08
2.0423e-10
-1.21105e-08
-3.08312e-10
-6.02837e-09
-1.938e-09
2.34122e-09
1.64772e-09
-8.96007e-11
-1.08712e-08
1.11175e-08
-1.56767e-10
2.89157e-09
-5.47781e-09
-1.07194e-08
1.03541e-08
-7.9004e-10
-1.05099e-08
-6.74115e-11
-1.08005e-08
-2.79311e-09
-1.18807e-08
2.25038e-09
7.82241e-09
5.10746e-09
4.93053e-12
-1.16162e-08
1.15217e-08
6.50485e-10
-8.57035e-09
5.24919e-09
-1.1297e-09
2.59004e-09
-2.88036e-09
-1.29958e-08
-1.30806e-08
1.27034e-08
-1.01864e-08
-1.58042e-08
1.00384e-08
9.11471e-09
8.63818e-10
2.58858e-09
-1.40393e-08
1.10657e-08
1.70706e-09
4.01241e-09
3.57163e-10
-5.93805e-10
-3.57319e-10
-4.05152e-09
2.66072e-09
-1.32585e-09
2.97738e-10
-3.48211e-10
5.04739e-11
-2.56944e-09
1.27562e-08
2.15567e-09
2.56595e-09
-6.85195e-10
-1.7066e-09
-2.21118e-10
-2.50621e-09
-5.83648e-10
1.27453e-08
9.85317e-09
-4.42211e-10
7.02078e-09
-1.20311e-09
-5.37546e-09
-9.66937e-09
-5.07579e-09
2.31303e-10
6.64343e-11
4.77829e-09
1.3276e-09
-1.69344e-08
-5.26793e-10
-8.84531e-10
-2.58012e-09
9.39763e-10
2.72525e-09
6.19356e-08
-8.79423e-11
-6.18477e-08
6.23527e-08
1.87657e-10
-6.25403e-08
-1.41915e-08
9.1207e-12
1.45537e-08
-3.7132e-10
2.83381e-09
-2.00527e-09
2.73497e-09
1.79307e-09
-4.39587e-09
-4.48556e-10
-6.12766e-10
4.96837e-10
-1.33105e-10
5.654e-10
-4.02396e-10
1.92739e-08
1.11758e-09
-1.56132e-08
-2.61423e-10
-1.95601e-09
1.22409e-08
2.2323e-09
1.75439e-09
5.2364e-09
-1.9411e-09
-7.72373e-08
-2.41772e-08
-4.7793e-09
1.5751e-08
2.3226e-09
-5.65195e-10
-3.26687e-09
-1.30063e-09
6.03839e-10
-5.0619e-10
-1.14107e-08
-3.16619e-10
1.17273e-08
-1.06927e-08
-6.64715e-09
1.06245e-08
-9.32718e-09
8.78741e-09
-2.85023e-11
1.77647e-09
1.08907e-08
-1.06886e-08
-2.02122e-10
7.07081e-10
7.4449e-11
1.00876e-08
9.62532e-10
-1.0523e-09
-2.76832e-10
-1.42441e-08
-5.19958e-10
-1.35445e-08
1.23138e-08
-1.16155e-08
-6.59879e-08
6.49447e-08
1.04324e-09
3.95769e-10
-3.79263e-10
1.17497e-08
-3.6398e-10
1.57686e-11
-2.02035e-09
2.77788e-09
-3.40976e-09
-1.35157e-08
-1.6603e-09
2.5729e-09
-4.75369e-09
-1.38886e-08
1.70791e-09
5.60805e-09
9.49432e-09
-8.82562e-09
-3.93023e-10
2.9042e-11
-9.34652e-09
-1.29776e-08
1.49969e-10
-6.27067e-08
2.37319e-10
6.24694e-08
6.96655e-10
6.34448e-08
-2.25696e-10
-1.18623e-09
-1.4405e-08
1.05453e-10
-6.3375e-08
6.32695e-08
1.83039e-10
-6.29246e-08
6.27416e-08
4.81729e-10
6.1805e-08
1.52064e-10
-6.19571e-08
6.16351e-08
1.69937e-10
-8.79063e-08
8.85154e-08
4.93471e-13
9.33954e-08
-9.31032e-08
-2.66963e-10
-8.66456e-08
-4.32074e-10
9.33552e-08
-1.83515e-10
-8.4931e-08
-7.66529e-10
9.34861e-08
1.73199e-10
-5.18881e-10
1.961e-09
9.23621e-08
-6.93464e-08
6.21495e-08
-6.2334e-08
-6.29656e-08
6.14919e-08
1.43196e-10
-3.00423e-09
2.80293e-09
-1.37737e-08
7.32417e-11
1.58061e-10
1.99353e-09
9.11898e-09
-1.15162e-08
3.82906e-08
-3.44573e-08
-1.66064e-08
1.37888e-08
-6.86627e-11
-2.22875e-10
2.48586e-10
8.63183e-10
-1.64921e-10
3.7914e-10
4.61099e-09
1.02942e-09
-3.76143e-09
-3.22362e-10
3.7651e-10
-2.53976e-10
-2.46374e-09
1.29178e-08
2.30212e-09
-1.44491e-08
-2.48909e-09
-3.57008e-09
5.66239e-09
1.05785e-09
-2.6302e-09
1.41947e-08
-1.17939e-09
-3.24688e-09
4.48181e-09
-8.15226e-09
-1.90648e-08
-1.32049e-08
7.75151e-09
5.98681e-09
-2.95804e-10
-5.29352e-10
3.16638e-09
1.44179e-08
2.06026e-09
-1.59335e-09
-4.52676e-10
4.96636e-10
-2.81587e-10
1.60011e-08
-4.9066e-10
-1.58271e-08
-2.1934e-09
-1.6536e-09
2.97007e-10
-2.26216e-10
3.59216e-09
-1.72091e-08
5.85219e-10
-1.65738e-09
-2.27079e-09
-2.40484e-09
1.53316e-08
-9.06058e-08
-1.35333e-10
9.169e-08
-1.92383e-10
-8.91801e-08
-4.79128e-10
9.31086e-08
-2.74491e-10
-9.2922e-08
-6.02616e-10
-1.75323e-09
1.63784e-08
9.1992e-08
-1.95882e-10
3.20442e-11
-2.20311e-10
1.03464e-08
2.45209e-09
-8.59783e-09
-1.19738e-08
-5.67064e-09
8.46432e-09
1.40014e-09
-6.89591e-09
-6.20697e-09
9.01986e-09
-1.68979e-10
1.01588e-08
1.93654e-08
-1.77528e-08
3.04492e-09
-1.25138e-08
3.01666e-09
-6.99485e-08
3.96057e-09
-2.03649e-08
-1.30052e-08
-5.68153e-10
-5.93034e-09
-1.53355e-08
9.15539e-09
-1.52294e-08
5.32325e-10
4.49693e-10
-1.63475e-09
-1.62811e-08
1.68268e-08
8.2813e-09
-8.50365e-09
-5.28149e-09
1.51145e-08
-1.71193e-09
7.92077e-10
-1.32699e-09
4.05029e-10
1.19591e-08
3.34883e-09
7.09459e-08
-1.80603e-08
8.77873e-10
-1.47832e-08
-2.80409e-10
-3.27532e-10
-1.28871e-10
6.09556e-08
-6.123e-08
-6.33429e-08
-6.31205e-08
-6.24785e-11
-2.61878e-10
-9.25977e-08
-6.0458e-08
6.2419e-08
6.50599e-08
-6.02848e-08
6.4541e-08
-6.04683e-08
6.37745e-08
-6.07352e-08
6.33424e-08
9.2321e-08
3.51206e-10
-6.43634e-09
7.51055e-08
-6.53203e-08
8.18013e-11
-8.18013e-11
1.27445e-09
-3.63655e-10
1.54992e-08
-8.6402e-11
8.6402e-11
4.36572e-10
1.5713e-09
1.38575e-08
1.31835e-08
-2.77829e-09
3.7578e-09
6.33225e-09
1.94355e-09
4.33564e-10
-3.04748e-10
-2.94033e-09
1.44575e-08
1.48339e-08
-4.26921e-09
1.17746e-08
2.36426e-10
1.88022e-10
2.91144e-09
-9.6342e-10
-1.69315e-09
-5.90611e-09
-1.61379e-10
-4.56018e-10
1.52729e-08
3.27838e-10
1.24889e-10
1.54263e-08
-2.59135e-08
1.74417e-08
2.60097e-09
1.4128e-09
2.3817e-09
-3.66693e-09
1.91151e-08
-1.78299e-08
-1.14242e-10
6.2158e-10
-1.44443e-09
-7.92211e-08
-7.07908e-08
1.43065e-09
-9.02734e-10
7.0166e-10
2.2842e-08
1.84665e-08
-6.43563e-09
1.12825e-10
-4.43044e-09
-2.34135e-09
2.99817e-08
1.55085e-10
1.48183e-08
7.35812e-08
8.25768e-11
5.47812e-10
-1.98442e-10
-2.62413e-10
-3.80471e-09
2.42024e-08
-1.48332e-08
1.14949e-09
-1.39676e-08
-7.62591e-11
2.02503e-08
-2.87013e-08
9.04402e-10
2.28841e-09
-5.38592e-10
)
;

boundaryField
{
    back
    {
        type            empty;
        value           nonuniform 0();
    }
    ingreso
    {
        type            calculated;
        value           nonuniform List<scalar> 
14
(
-1.54286e-08
-1.54288e-08
-1.54288e-08
-1.54288e-08
-1.54286e-08
-1.54283e-08
-1.54288e-08
-1.54288e-08
-1.54286e-08
-1.54286e-08
-1.54288e-08
-1.5428e-08
-1.5428e-08
-1.54286e-08
)
;
    }
    salida
    {
        type            calculated;
        value           nonuniform List<scalar> 2(1.01414e-07 1.14585e-07);
    }
    front
    {
        type            empty;
        value           nonuniform 0();
    }
    defaultFaces
    {
        type            calculated;
        value           uniform 0;
    }
}


// ************************************************************************* //
