/*--------------------------------*- C++ -*----------------------------------*\
  =========                 |
  \\      /  F ield         | OpenFOAM: The Open Source CFD Toolbox
   \\    /   O peration     | Website:  https://openfoam.org
    \\  /    A nd           | Version:  7
     \\/     M anipulation  |
\*---------------------------------------------------------------------------*/
FoamFile
{
    version     2.0;
    format      ascii;
    class       volVectorField;
    location    "55.5";
    object      U;
}
// * * * * * * * * * * * * * * * * * * * * * * * * * * * * * * * * * * * * * //

dimensions      [0 1 -1 0 0 0 0];

internalField   nonuniform List<vector> 
591
(
(0.00082321 -3.13822e-05 1.21829e-18)
(0.000809203 -2.7647e-05 -6.63606e-19)
(0.000856051 -2.28283e-05 5.69112e-20)
(0.000852422 -4.29958e-06 -1.49169e-19)
(0.000835346 8.74894e-06 2.25383e-19)
(0.00080033 -4.04998e-05 -1.39663e-19)
(0.000551933 -0.000324612 8.06436e-19)
(0.000801659 3.07826e-06 2.0652e-18)
(0.00573592 0.00249495 9.87739e-19)
(0.000793581 -1.51723e-05 2.45127e-18)
(5.14949e-05 0.000172832 1.21847e-18)
(0.000921567 0.0013692 9.41192e-21)
(0.000797367 6.52409e-06 1.31812e-18)
(0.00160224 0.00238141 -7.87842e-19)
(0.000802839 4.37797e-06 -4.38467e-19)
(8.07056e-05 -0.000220493 2.50528e-22)
(0.000134659 0.000676733 7.05136e-19)
(0.000819414 5.35363e-05 -4.89896e-19)
(0.00193912 0.000387115 4.73236e-19)
(0.00135535 0.000258522 -2.4718e-19)
(0.000833204 -1.41492e-06 3.72012e-19)
(0.00340006 0.00655892 -8.15183e-20)
(2.96505e-05 7.22526e-05 2.71002e-19)
(0.000833493 -8.56271e-06 -4.50275e-19)
(1.3429e-05 -1.8101e-05 3.59015e-19)
(0.000765539 3.00047e-05 0)
(9.22e-05 0.000476951 1.59991e-19)
(0.000533447 1.72621e-05 -1.78886e-19)
(0.000750908 4.94847e-05 1.14982e-18)
(0.000814795 3.68833e-05 5.92091e-19)
(6.07252e-05 -2.84626e-06 -3.96833e-24)
(3.69921e-05 -4.89725e-05 3.52262e-19)
(3.97893e-05 -3.38436e-06 -4.64338e-20)
(4.84476e-05 -1.1474e-05 0)
(5.75489e-05 -1.34439e-05 1.13174e-18)
(0.00117313 0.00012929 1.79939e-19)
(3.41026e-05 -5.93523e-06 4.47254e-20)
(0.000827042 9.57021e-06 3.11502e-23)
(2.9258e-05 4.5934e-05 2.66091e-19)
(2.63667e-05 -0.000116775 -8.54844e-19)
(0.000617553 -0.000202924 9.59861e-19)
(2.77104e-05 -7.57151e-06 4.54933e-20)
(0.000796662 -2.35427e-06 -1.57835e-18)
(0.000828268 3.56754e-05 -6.88855e-19)
(1.92548e-05 -8.98845e-06 0)
(5.76322e-05 8.22411e-06 8.52069e-20)
(0.00134125 0.00450717 8.93092e-19)
(7.91595e-05 1.83388e-05 8.63818e-20)
(0.000798435 1.82842e-05 0)
(0.000376567 -0.000189488 6.77891e-19)
(0.000377754 0.000276228 5.12013e-21)
(0.000390384 5.66618e-05 -1.00403e-18)
(0.00634801 0.010942 -7.68327e-19)
(0.00622506 0.0107973 1.5286e-20)
(0.00561455 0.0103806 1.45559e-18)
(0.000810812 2.0801e-05 0)
(6.94457e-05 3.32711e-05 0)
(0.000318188 2.14427e-05 1.20675e-23)
(6.58693e-05 1.21315e-05 -3.46537e-19)
(0.000817538 -8.10792e-06 0)
(0.000627065 2.83866e-05 3.17648e-19)
(0.000827907 2.06134e-06 2.21069e-18)
(0.000792209 2.13954e-05 -5.44263e-19)
(0.000798133 1.71372e-05 -3.1583e-19)
(0.00171578 0.000471695 5.42288e-19)
(0.00079322 7.51016e-06 -1.15509e-18)
(0.000823691 1.05863e-05 -5.24202e-19)
(8.50054e-05 -4.49544e-07 -1.73451e-19)
(0.000687479 0.00226821 0)
(0.000829868 3.07932e-05 0)
(0.000771314 1.52326e-05 -1.39e-18)
(3.9965e-05 1.72424e-05 0)
(0.000286267 0.00027314 3.26906e-19)
(4.36901e-05 -1.82125e-05 0)
(4.45763e-05 -6.18239e-06 1.59509e-19)
(2.06789e-05 -4.85732e-05 -3.36754e-20)
(0.00078347 7.35505e-05 2.4707e-19)
(4.64902e-05 1.17864e-05 0)
(0.000794911 5.70197e-05 4.47438e-19)
(0.000765201 0.000294712 2.10774e-19)
(0.000965131 6.07068e-05 -3.98037e-20)
(4.49407e-05 2.46571e-05 -4.51966e-20)
(6.41301e-06 -2.86329e-05 0)
(0.000428954 0.00021935 1.7022e-19)
(2.8152e-06 2.58815e-05 0)
(0.000780377 3.33095e-05 -6.0824e-19)
(0.000591302 -0.000120627 0)
(6.82027e-05 -2.78995e-07 -1.74519e-19)
(4.2742e-06 -3.90684e-05 0)
(0.000822339 0.000244404 -3.41347e-19)
(4.43257e-06 -1.72812e-05 0)
(0.000419667 0.000324258 -1.28378e-23)
(0.000523145 0.000113771 0)
(0.000800785 4.75376e-05 -3.8406e-24)
(2.91877e-06 1.67509e-05 -4.2181e-20)
(0.000447033 -6.3689e-06 1.76398e-18)
(0.00102395 7.25096e-05 4.16137e-20)
(0.000863465 4.334e-05 6.40973e-22)
(0.000733791 0.000657221 2.69554e-19)
(6.389e-06 5.35154e-05 0)
(3.34665e-06 -6.3529e-05 -3.12378e-19)
(-9.97846e-06 -0.000117992 -1.09995e-18)
(3.49602e-06 8.44313e-05 -5.96346e-19)
(0.000643007 -1.61548e-05 0)
(7.44464e-06 0.000109914 0)
(0.000802795 1.91367e-05 2.19915e-18)
(0.000780145 2.08706e-05 1.52904e-18)
(0.000415676 -6.53661e-05 0)
(4.50643e-05 0.000222903 -8.95518e-19)
(-8.78097e-07 0.000178847 4.96591e-19)
(6.61655e-05 0.000424277 6.2513e-19)
(0.000302272 9.07232e-05 -9.37288e-19)
(0.000803415 1.89289e-05 1.37374e-19)
(0.000262905 -2.97188e-05 5.31345e-19)
(4.01503e-06 3.63888e-05 0)
(2.4995e-05 0.000295557 -1.09395e-18)
(0.000317603 0.000326136 -1.61733e-19)
(3.69331e-06 -5.0858e-05 1.46579e-19)
(0.000668956 0.000812073 0)
(0.000365145 0.000390254 5.74521e-20)
(0.000811336 8.96107e-06 1.07039e-18)
(0.000797953 6.1561e-07 -2.68938e-18)
(7.17294e-06 -7.13776e-05 0)
(0.000688821 -2.84617e-05 -1.12348e-19)
(0.000319822 -9.61595e-05 1.24353e-18)
(0.00265134 0.000798777 -3.36007e-19)
(4.00432e-06 0.000140654 -6.13172e-19)
(1.77471e-06 0.000171462 1.61931e-18)
(0.00074116 2.05805e-05 -3.89878e-20)
(6.68434e-05 -1.19466e-05 -7.50341e-19)
(0.000801719 2.44326e-05 -3.88465e-19)
(0.000789131 2.61094e-05 -4.10364e-20)
(4.16915e-05 0.000342135 -5.96823e-19)
(0.000479444 7.2536e-05 -4.94039e-19)
(5.15803e-05 -2.87967e-06 1.5619e-19)
(0.000827259 2.14805e-05 -1.08929e-18)
(0.00157958 0.000235005 -1.13662e-18)
(3.54134e-06 6.76253e-05 4.96432e-19)
(0.000807096 2.08207e-05 -4.95217e-19)
(0.000901769 0.000540186 -7.8527e-20)
(0.000140145 0.00080171 0)
(0.00057343 6.57795e-05 0)
(0.000274077 5.81912e-05 -1.61003e-18)
(6.49468e-05 6.08e-05 -1.3744e-18)
(3.22458e-05 2.17446e-05 0)
(0.00424717 0.00740011 -1.01967e-20)
(0.0042255 0.00737163 3.16387e-20)
(0.00442766 0.00757439 -4.96249e-21)
(0.00420668 0.00773596 0)
(0.00419907 0.00760151 5.77077e-19)
(0.00424435 0.00740112 -9.19699e-20)
(0.00421027 0.00804396 4.84295e-19)
(0.00428953 0.00742173 0)
(0.0042084 0.00853756 6.1657e-19)
(0.0043261 0.00745018 2.23872e-19)
(0.000817513 8.59923e-07 -1.37279e-18)
(0.000762542 5.11064e-05 0)
(0.000215365 5.84097e-05 1.27716e-19)
(5.23951e-05 1.71452e-05 8.72045e-20)
(7.97776e-05 4.71689e-05 6.80171e-19)
(0.000107992 4.40854e-05 -3.41744e-19)
(0.000102988 8.07012e-06 0)
(5.05148e-05 5.70804e-06 8.18552e-20)
(0.000205394 0.000137199 0)
(0.000167327 4.7382e-05 -5.24379e-20)
(0.000340846 0.000225627 -5.09352e-21)
(5.74466e-05 4.48824e-05 -4.37753e-19)
(9.28403e-05 2.98571e-05 -8.52664e-20)
(9.19999e-05 6.44514e-05 1.31223e-21)
(0.000252598 0.000368808 -6.66296e-19)
(0.000107152 0.00101375 0)
(4.33128e-05 5.45172e-05 3.43138e-19)
(0.000204864 0.00175748 0)
(0.00020713 0.000256188 7.04796e-19)
(4.04e-05 -4.25815e-06 1.11521e-19)
(0.000477803 0.000166176 -1.72337e-19)
(0.0007545 2.58019e-05 -1.92459e-18)
(4.4975e-05 -9.60737e-07 4.33043e-24)
(0.000151011 2.8576e-05 2.24637e-19)
(0.000242646 9.74136e-05 -8.9952e-20)
(0.000880576 0.000709042 3.35007e-19)
(0.000718191 0.00163143 -9.23783e-21)
(0.000386181 0.00142797 -9.3915e-21)
(0.00102126 0.000551616 0)
(0.000106153 -1.36533e-05 1.11897e-18)
(0.000118776 1.93434e-05 -4.43248e-20)
(0.000445517 -0.00028546 -1.136e-18)
(0.000808517 3.46621e-05 0)
(0.000183299 9.25338e-06 3.63375e-19)
(0.000300934 0.0013212 0)
(0.00106569 0.000768605 -7.30347e-20)
(0.000824978 3.57351e-05 -1.86407e-19)
(8.12841e-05 -2.01775e-05 -3.00053e-19)
(0.000820795 0.000320284 -2.08095e-20)
(6.17364e-05 -2.15716e-05 -5.99646e-19)
(0.000226037 0.000178732 8.64046e-20)
(0.00022844 0.000310732 -3.45077e-19)
(0.000879648 0.000244822 0)
(0.000809112 4.86199e-05 0)
(0.000261535 0.000141831 1.76883e-19)
(0.000234396 7.99411e-06 1.8413e-24)
(0.000184397 0.00020884 0)
(0.000288543 0.000654696 -5.55802e-21)
(0.000341805 3.75346e-06 0)
(0.000362057 0.000601223 0)
(0.000110548 8.54058e-05 -1.347e-21)
(0.000809868 2.23607e-05 -9.39873e-19)
(0.000809509 1.77957e-05 7.94254e-19)
(0.00013047 6.10966e-05 -1.49889e-19)
(0.0009516 0.000152404 8.5083e-20)
(0.000832946 4.49489e-05 3.32969e-19)
(0.00081225 2.33741e-05 -2.92884e-19)
(0.00101052 0.000409672 0)
(0.000434297 0.00012309 6.24576e-19)
(0.000892526 0.000318579 2.09186e-20)
(0.000569585 0.000159163 0)
(0.000271546 0.000446493 4.09714e-19)
(0.000260734 0.000220306 -8.44341e-20)
(0.00109349 0.000375949 -7.82248e-19)
(0.000615387 0.000107611 -1.79336e-19)
(0.000802807 7.36068e-05 -7.45268e-21)
(0.000835645 2.96862e-05 9.38999e-20)
(8.6812e-05 -8.83244e-05 -1.98182e-18)
(0.0007342 0.000382377 2.1928e-19)
(0.00066 6.1966e-05 2.30667e-20)
(0.000701392 0.000278637 1.59199e-23)
(0.000724394 0.00045784 -4.09716e-19)
(0.000841325 3.48637e-05 9.06591e-20)
(7.33692e-05 8.28536e-05 0)
(0.00065108 0.000417515 -4.65907e-20)
(0.000184242 9.98172e-05 0)
(0.000373389 0.000502209 -2.64883e-19)
(0.000309381 0.00017156 0)
(0.000669697 0.000203203 3.55312e-19)
(0.000643753 0.000261298 -4.37351e-20)
(8.21402e-05 0.000106176 6.19294e-19)
(0.000874171 9.14366e-05 -1.61913e-18)
(5.98461e-05 2.35724e-05 2.5725e-19)
(0.000879644 6.22145e-05 -1.68298e-18)
(0.000834497 8.53464e-05 1.63109e-19)
(0.000806358 2.95614e-05 1.89744e-18)
(0.000808526 3.00388e-05 -1.30022e-19)
(0.000729453 7.35248e-05 0)
(0.000806219 2.89515e-05 8.95855e-19)
(0.000950261 0.000229174 -4.27208e-19)
(0.000764527 8.89507e-05 -4.83793e-19)
(0.000774864 0.000228623 -8.81439e-20)
(0.000221781 -0.000148572 -2.07992e-18)
(0.00073765 8.24741e-05 8.874e-19)
(0.000638482 0.000596946 0)
(0.000103193 -0.000111789 0)
(0.00121026 0.000470629 4.97235e-19)
(0.000668062 -6.53927e-05 -3.23496e-18)
(0.00133327 0.000426128 5.76174e-19)
(0.00123255 0.000719088 -6.38406e-20)
(0.000805237 3.2292e-05 -2.10819e-19)
(0.000829534 6.80973e-05 -1.42428e-18)
(0.000813817 2.16532e-05 1.57163e-18)
(0.0008152 2.97796e-05 9.67249e-20)
(0.000666869 0.0003501 -4.40497e-20)
(0.000102943 0.00012759 5.27258e-24)
(0.000741178 -4.70529e-05 2.6516e-19)
(0.000224761 -0.000246343 -7.331e-19)
(0.000615708 0.00018813 0)
(0.000699481 3.86739e-05 9.90656e-20)
(0.000680322 1.03582e-05 -3.80908e-19)
(0.000385375 0.000173997 3.93442e-20)
(0.000800474 0.000502367 -1.65508e-19)
(0.000150637 7.96244e-05 2.8941e-25)
(0.000807966 0.000407067 0)
(0.000973196 0.000320531 4.1587e-20)
(0.000746797 -8.20334e-05 -6.16479e-19)
(0.000344648 0.00010974 4.97896e-19)
(0.000901608 0.000422967 0)
(5.11434e-05 3.29476e-05 1.33741e-19)
(0.00047795 0.000270124 2.13993e-19)
(0.0004851 -0.000135219 -7.09592e-19)
(0.000149292 -0.000151431 -1.05884e-18)
(0.000820584 2.72493e-05 -4.79102e-19)
(0.000785246 -9.98629e-05 -1.94258e-19)
(0.000553804 0.000726936 -1.1746e-18)
(0.000840656 4.57035e-05 -6.73473e-20)
(0.000666252 -2.69684e-05 1.26205e-18)
(0.000691699 9.93174e-05 2.27838e-20)
(0.000524665 0.000212702 -1.65717e-19)
(3.46613e-05 -2.29558e-05 -8.76029e-20)
(0.000176025 -3.72531e-05 2.40663e-18)
(2.16428e-05 8.31489e-07 -1.94872e-19)
(0.000816813 0.000107046 3.63714e-19)
(0.0006527 0.00013751 0)
(0.000192481 -7.46265e-05 -1.04832e-18)
(0.000124999 -1.33722e-05 3.12977e-19)
(0.000116031 -3.40616e-05 8.49251e-24)
(0.000791492 0.000108712 -3.19337e-19)
(0.000155865 -8.69132e-06 0)
(0.00057914 0.000243067 0)
(0.000111168 0.00033325 -3.62918e-19)
(0.000853434 9.9806e-05 2.09717e-18)
(1.76491e-05 1.32655e-06 0)
(0.000871436 5.12853e-05 0)
(4.71486e-05 -2.63387e-05 0)
(0.000814533 4.1426e-05 -4.45651e-21)
(0.000793603 -5.25832e-05 0)
(0.00425992 0.00740625 8.06912e-20)
(0.00436165 0.00748592 1.43557e-19)
(0.000843502 -9.42365e-07 0)
(0.000777342 -5.2883e-05 8.10985e-19)
(0.000153172 0.000128756 1.49238e-19)
(0.000847385 7.13188e-05 8.07878e-19)
(0.000131416 0.000105392 2.34444e-20)
(0.000772103 -3.22302e-05 6.25156e-19)
(3.67489e-05 1.05231e-05 0)
(3.12134e-05 -1.47193e-05 -4.4858e-20)
(0.000888325 5.00985e-05 -4.86694e-19)
(3.74123e-05 -3.35922e-05 -6.69946e-19)
(0.000749461 0.000119552 -4.23342e-20)
(0.000168056 0.000166452 -1.88135e-19)
(0.000813063 2.34216e-05 0)
(0.00468262 0.00815383 9.01713e-22)
(0.000173045 0.000785791 3.3361e-19)
(0.000124493 -5.42184e-05 -9.14724e-19)
(6.5773e-05 -3.51811e-05 -1.169e-18)
(0.000677943 1.53066e-05 1.89903e-20)
(0.000577984 0.00041081 0)
(0.0004135 0.000440332 -2.56378e-19)
(9.29907e-05 -5.75124e-05 1.18391e-18)
(0.000635417 1.15106e-06 7.70439e-20)
(4.43312e-05 2.22816e-06 4.0718e-19)
(0.000684046 -5.66866e-05 1.17195e-18)
(0.000808753 3.12431e-05 -5.96141e-19)
(7.31629e-05 -5.54466e-05 1.70956e-18)
(0.000841813 -1.46091e-05 -5.26792e-24)
(0.000654389 7.55094e-06 -3.76603e-20)
(0.000861881 6.60722e-05 0)
(0.000831563 3.44784e-05 0)
(0.00591696 0.00723691 2.59433e-19)
(2.26602e-05 -1.50231e-06 -1.19598e-19)
(0.000142281 -9.34417e-05 7.73101e-19)
(0.000717243 0.000120644 -6.96613e-19)
(2.60594e-05 -2.83631e-07 2.01533e-19)
(0.000603191 -3.21362e-05 -7.24004e-19)
(0.000735459 3.61058e-05 1.55846e-18)
(0.000697812 0.000158688 -3.55518e-19)
(0.00080739 -1.33889e-05 3.60292e-19)
(8.30475e-05 -3.22433e-05 1.11628e-18)
(0.00079758 8.04244e-06 -3.22779e-19)
(0.000861535 4.42216e-05 0)
(0.000535648 0.000303279 4.21103e-20)
(0.000849184 4.93264e-05 -9.4539e-19)
(2.30408e-05 1.77354e-06 9.11318e-19)
(0.000846136 4.66075e-05 9.65723e-19)
(0.000851283 -1.18917e-06 -9.60014e-19)
(0.000736097 -2.83706e-07 -5.69336e-19)
(0.000506682 -6.44069e-05 -5.25777e-19)
(0.00432886 0.00745236 2.47418e-19)
(0.00422301 0.00752976 -2.78762e-19)
(0.00422155 0.00758787 2.66465e-19)
(0.00425583 0.00741051 1.97931e-19)
(0.000845716 -1.90226e-05 1.43901e-19)
(0.00447489 0.00751127 0)
(0.00440269 0.0075164 -3.86743e-19)
(3.48845e-05 -1.6525e-07 -9.98223e-19)
(0.00417064 0.00746927 -6.33522e-20)
(0.004146 0.00743227 -2.21472e-19)
(0.00602992 0.010607 0)
(0.00654036 0.0111875 3.71239e-20)
(0.00600993 0.0105768 0)
(0.00655605 0.0112111 1.30846e-19)
(0.00599732 0.010601 2.69632e-19)
(0.00659264 0.0112277 1.24578e-20)
(0.00593594 0.0106137 -7.76563e-19)
(0.00662284 0.0111466 8.14978e-21)
(0.00390331 0.00920212 -1.90877e-19)
(0.00418702 0.00748867 3.87173e-21)
(0.00423807 0.00755275 7.93391e-20)
(0.0041504 0.00743448 4.11963e-20)
(0.000866813 0.000187876 4.46853e-20)
(1.26496e-05 1.81318e-06 0)
(0.000685655 -0.000133673 0)
(0.000678621 4.48086e-05 0)
(0.00244281 0.00111101 4.25232e-21)
(0.000749746 -3.1086e-05 1.72632e-19)
(4.28116e-05 6.49974e-06 4.54157e-20)
(1.35486e-05 -2.99601e-05 1.65364e-18)
(0.000844706 1.81933e-05 0)
(2.95445e-05 1.37101e-05 -1.91771e-19)
(0.000141545 0.000226625 0)
(2.24221e-05 -1.15072e-06 0)
(1.84362e-05 -1.61293e-06 0)
(0.000813099 0.000132584 1.13647e-20)
(0.000808714 -1.38876e-05 1.79103e-19)
(3.49773e-05 0.000285885 -1.95256e-23)
(0.000159027 0.000275485 -1.84228e-18)
(0.000597576 0.000332237 -8.57176e-20)
(0.000894746 0.000115586 5.99242e-19)
(0.000684731 -0.000273004 6.73326e-19)
(0.000359587 0.00110871 0)
(0.000462809 0.000572919 2.71572e-18)
(9.21486e-05 0.000149632 -1.80334e-18)
(2.73759e-05 2.45711e-07 0)
(0.000818561 -5.01239e-05 3.63301e-20)
(1.78992e-05 3.88444e-05 1.64487e-18)
(0.000900333 2.92665e-05 2.71304e-19)
(4.29487e-06 -5.02698e-05 3.79689e-18)
(0.000929714 3.9288e-05 -2.69125e-19)
(0.00137156 0.000151493 7.47561e-19)
(3.88613e-05 -1.14037e-05 8.25906e-20)
(3.99635e-05 4.96314e-06 -8.59221e-19)
(5.01889e-05 0.000147257 0)
(0.000901798 7.65579e-05 5.98335e-19)
(0.000490693 0.00036877 2.3719e-19)
(0.000701945 1.7955e-05 -3.8917e-20)
(0.000769987 -8.20569e-06 2.56975e-19)
(0.000733619 -0.000201456 0)
(0.00632072 0.0108973 -1.68088e-19)
(0.00637903 0.0109744 4.05745e-19)
(0.00616069 0.010732 -6.18271e-19)
(0.00650126 0.0111327 -8.09822e-20)
(3.65613e-05 0.000121983 8.00713e-19)
(0.000909883 5.87457e-05 1.48743e-22)
(0.0064116 0.0110068 -3.86381e-19)
(0.00628184 0.0108473 5.48169e-19)
(0.0060808 0.0106737 -4.16739e-19)
(0.00652181 0.0111651 -6.81374e-20)
(8.23499e-05 0.000520797 -2.01866e-20)
(0.000110637 -0.000203304 -7.92803e-19)
(0.000702857 -1.90013e-05 -7.60236e-19)
(0.000719093 0.000220974 0)
(0.000798754 1.13129e-06 0)
(0.000184544 0.000392673 3.36362e-19)
(0.000595412 0.000524687 -5.41807e-19)
(1.31111e-05 -2.14208e-06 1.78441e-19)
(0.000203884 0.000465961 -7.38535e-19)
(0.00100122 0.000969052 -1.12738e-19)
(0.000736336 0.000167258 0)
(0.000782797 0.000179778 1.31055e-19)
(0.00635542 0.00587458 1.13128e-18)
(0.000739554 0.00112801 8.26742e-20)
(4.09568e-05 4.04807e-05 -7.44872e-20)
(0.00081402 2.30425e-05 0)
(0.000875777 2.6142e-05 -3.57012e-20)
(3.81364e-05 4.19759e-06 -1.96737e-19)
(3.28866e-05 5.64395e-06 1.93031e-19)
(0.000829777 2.26929e-05 5.371e-19)
(0.000965951 0.00010606 6.58682e-19)
(0.000600793 3.64324e-05 0)
(0.000220571 -0.000311111 -3.9808e-19)
(0.000909038 0.000150645 3.89714e-19)
(2.13915e-05 -6.99442e-05 2.03169e-19)
(0.00144008 0.000428969 -2.58011e-18)
(0.000631808 -4.13731e-06 0)
(0.000785538 0.000144846 3.75573e-19)
(9.30483e-05 0.000400844 0)
(0.00118533 0.00816635 4.62138e-19)
(0.000481558 0.000502317 -1.22481e-18)
(0.000543799 0.000994398 -1.8379e-19)
(0.000874727 2.07291e-05 -1.4602e-19)
(1.50579e-05 2.74688e-05 0)
(0.000933093 7.6214e-05 6.11889e-19)
(0.00410687 0.00739538 8.14163e-20)
(0.00417161 0.00747388 4.73057e-20)
(0.00449835 0.00751378 4.53952e-19)
(0.00444399 0.00754081 -3.28306e-19)
(0.00647515 0.0111096 8.10601e-20)
(0.00391529 0.00714649 -9.62685e-22)
(0.00550653 0.00779442 -5.64633e-19)
(0.00409838 0.00737211 5.2168e-21)
(0.00518677 0.00785456 5.11547e-19)
(0.00408024 0.00734053 -4.86955e-20)
(0.00495187 0.00771418 0)
(0.00408571 0.00736472 -8.5625e-20)
(0.00474057 0.00758567 4.92406e-19)
(0.00409883 0.00737613 8.74986e-20)
(0.00457334 0.00752551 0)
(0.00428355 0.00742028 1.39739e-19)
(0.00423967 0.00759933 5.79603e-19)
(0.00446642 0.00752608 -5.53179e-19)
(0.00438703 0.00750398 3.71266e-19)
(0.00422824 0.00752557 3.22772e-19)
(0.00643064 0.0110433 -4.97216e-21)
(0.00411815 0.00740143 3.11563e-20)
(0.00645867 0.011073 0)
(2.65984e-05 7.01438e-06 -1.89907e-19)
(0.0019975 0.00654257 2.28386e-19)
(0.000842253 -3.44764e-05 1.09669e-19)
(0.00085791 1.34583e-05 0)
(2.33683e-06 2.15747e-06 -3.99212e-19)
(1.96175e-05 -0.000164506 6.9183e-19)
(2.4787e-05 6.00338e-05 2.08949e-18)
(0.000819963 0.000179055 -9.01007e-20)
(0.000797355 1.07302e-05 7.06612e-19)
(2.44485e-06 -2.25639e-06 3.1007e-19)
(2.23466e-05 -3.79428e-05 -1.84615e-18)
(0.000758771 2.79351e-05 1.63202e-19)
(0.000861883 0.000125808 -3.07944e-20)
(0.000798806 -9.87499e-06 1.4805e-19)
(0.000403873 0.000675581 0)
(7.29697e-05 -0.000151541 1.15126e-18)
(0.000855708 1.26791e-05 1.52496e-19)
(2.13697e-05 2.58087e-05 0)
(0.000110687 0.000564927 -6.31337e-19)
(0.000604619 0.000599981 1.31819e-18)
(0.000329054 0.000741824 0)
(0.000798767 -1.79121e-05 0)
(0.000798017 4.86135e-06 1.17472e-18)
(1.97371e-05 5.18034e-05 -3.51579e-18)
(1.86053e-05 8.50978e-06 3.73716e-19)
(0.000115501 0.000150065 0)
(5.2176e-05 -4.26008e-05 0)
(6.46192e-05 0.000116524 2.01047e-19)
(0.000927435 0.000182004 3.5053e-19)
(0.00079947 1.57999e-05 -1.39114e-18)
(2.43555e-05 3.56949e-05 0)
(0.000498837 1.99424e-05 -6.03458e-20)
(0.000800786 4.04363e-05 -1.56389e-19)
(0.000833853 2.90762e-05 1.05897e-18)
(0.000258141 0.000543849 6.32357e-19)
(0.000862955 0.0001546 0)
(2.33538e-05 -2.67849e-05 5.38816e-19)
(3.40518e-06 -8.76683e-06 -3.2005e-19)
(0.0010119 2.8138e-05 0)
(0.00103261 0.00225273 0)
(0.000971537 -1.41512e-05 0)
(0.000995168 0.00020347 4.27302e-19)
(0.000814521 -2.88521e-05 -2.83654e-19)
(0.000919386 0.000112372 -6.84971e-19)
(0.000798521 3.36629e-06 0)
(4.30666e-05 7.26924e-05 -1.71608e-19)
(0.00017379 0.000329357 1.08136e-18)
(0.0007965 2.20496e-05 -6.18702e-24)
(0.00107962 0.000205356 -6.69183e-19)
(0.00108993 0.00012195 0)
(3.03688e-06 8.39408e-06 2.51093e-19)
(2.1479e-05 -1.75346e-05 -1.94363e-19)
(0.000602574 3.53437e-05 6.95214e-21)
(2.36561e-05 -9.26042e-05 0)
(0.0010477 0.000251181 9.50213e-19)
(0.0050288 0.00974976 -2.83012e-19)
(0.00312036 0.00962163 1.27203e-18)
(5.88232e-05 -0.000113032 -1.91349e-19)
(6.70247e-05 -7.85183e-05 1.86004e-18)
(0.00119274 0.000236788 1.67221e-19)
(0.00133184 0.00107976 2.34136e-19)
(0.000815058 3.96766e-07 -7.31705e-19)
(0.000205738 0.000952192 -2.38577e-19)
(0.000804657 0.00091581 -2.18629e-19)
(0.000799138 -4.04294e-06 0)
(8.90156e-05 0.000642471 0)
(9.65428e-05 0.000285183 -4.24742e-23)
(0.000724242 -3.60088e-05 -1.68513e-23)
(0.000818194 5.55878e-05 1.50703e-19)
(0.00262818 0.00206631 -1.2317e-18)
(0.00175846 0.00924261 -1.17147e-19)
(0.000832186 4.09713e-05 4.92302e-19)
(0.00632933 0.00404141 -1.75871e-19)
(0.00672085 0.0115576 -1.36483e-20)
(0.0047345 0.00784433 4.93077e-21)
(0.000800303 1.566e-05 -2.18776e-18)
(0.000831227 1.7727e-05 1.87321e-24)
(1.14582e-05 -9.28883e-06 -3.4811e-19)
(4.73022e-05 9.40845e-05 -3.49366e-19)
(7.11633e-05 0.000276468 8.75578e-19)
(1.27935e-05 1.79434e-05 4.90534e-19)
(8.98357e-05 0.00023528 3.69849e-19)
(0.000822162 2.98189e-05 0)
(0.00534789 0.00949213 1.95057e-20)
(0.00153496 0.000622981 -2.61011e-20)
(0.000820153 2.98128e-05 3.55328e-19)
(4.63236e-05 -8.8161e-05 0)
(0.00184708 0.000739117 5.46197e-19)
(1.11534e-05 8.94052e-06 -2.70225e-19)
(3.61405e-05 3.08085e-05 9.72076e-20)
(0.00131832 0.00138808 6.36622e-19)
(0.000736932 4.39954e-05 1.8316e-19)
(7.62442e-06 -2.31916e-06 -1.7025e-19)
(0.00206569 0.00155034 -1.0563e-18)
(0.000126722 0.000183469 -8.1893e-19)
(0.00392114 0.00848766 -1.09112e-18)
(7.44995e-06 2.09067e-06 8.81657e-20)
(0.000160514 -0.000180128 -1.25353e-18)
(5.66605e-05 -5.93691e-05 4.05759e-20)
(0.00153192 0.000971018 0)
(0.0010337 0.000139967 -4.12915e-22)
(0.000454214 0.000851351 -4.02289e-20)
(0.000802038 2.53963e-05 -2.33758e-19)
(8.71741e-05 0.000189741 7.36235e-19)
(4.01438e-05 -6.64409e-05 4.04132e-19)
(1.99545e-05 1.68352e-05 -9.47351e-20)
(3.4131e-05 9.76588e-05 -3.20369e-19)
(0.000201241 -0.000304447 -5.44739e-19)
(0.00325186 0.00345208 2.77809e-21)
)
;

boundaryField
{
    back
    {
        type            empty;
    }
    ingreso
    {
        type            fixedValue;
        value           uniform (0.0008 0 0);
    }
    salida
    {
        type            zeroGradient;
    }
    front
    {
        type            empty;
    }
    defaultFaces
    {
        type            noSlip;
    }
}


// ************************************************************************* //
