/*--------------------------------*- C++ -*----------------------------------*\
  =========                 |
  \\      /  F ield         | OpenFOAM: The Open Source CFD Toolbox
   \\    /   O peration     | Website:  https://openfoam.org
    \\  /    A nd           | Version:  7
     \\/     M anipulation  |
\*---------------------------------------------------------------------------*/
FoamFile
{
    version     2.0;
    format      ascii;
    class       volScalarField;
    location    "2";
    object      p;
}
// * * * * * * * * * * * * * * * * * * * * * * * * * * * * * * * * * * * * * //

dimensions      [0 2 -2 0 0 0 0];

internalField   nonuniform List<scalar> 
591
(
0.000137534
0.000137522
0.000137713
0.000137275
0.000137332
0.000138539
0.000137654
0.00013766
0.00013061
0.000137506
0.000137659
0.000136268
0.000138183
0.00013261
0.000137589
0.000137484
0.000137176
0.000137605
0.000135907
0.000137167
0.00013747
2.8121e-06
0.000137621
0.000137267
0.000137544
0.000137524
0.0001374
0.000137482
0.000137373
0.000137635
0.000137575
0.000137538
0.000137573
0.000137576
0.000137579
0.000137277
0.000137566
0.000137546
0.000137592
0.000137477
0.000137401
0.000137562
0.000137511
0.000137638
0.000137558
0.00013758
0.00013221
0.000137586
0.000137547
0.000137586
0.000137466
0.000137522
3.66985e-05
4.35753e-05
6.26511e-05
0.000137647
0.000137588
0.000137552
0.000137582
0.000137383
0.000137447
0.000137375
0.000137454
0.00013876
0.000136102
0.000137519
0.000137664
0.000137588
0.000133161
0.000137665
0.000137411
0.000137589
0.000137497
0.000137557
0.000137557
0.000137536
0.000137469
0.000137584
0.000137351
0.000137375
0.000137268
0.00013759
0.000137568
0.000137463
0.000137572
0.000137507
0.000137461
0.000137572
0.000137565
0.000137325
0.000137567
0.000137432
0.000137457
0.000137439
0.000137582
0.000137503
0.000137233
0.000137026
0.000137108
0.00013755
0.000137578
0.00013755
0.000137539
0.00013728
0.000137529
0.000137638
0.000137582
0.0001375
0.000137641
0.000137563
0.000137615
0.000137521
0.000137435
0.000137575
0.000137557
0.000137696
0.000137464
0.00013757
0.00013702
0.000137424
0.000137534
0.000138511
0.000137583
0.000137216
0.000137572
0.000133967
0.000137551
0.000137507
0.000137254
0.000137556
0.000137452
0.000137171
0.000137677
0.00013749
0.000137576
0.000137558
0.000136789
0.000137553
0.000137488
0.000137022
0.000137101
0.00013745
0.000137549
0.000137589
0.000137593
1.44247e-05
9.80542e-06
7.60342e-06
4.94527e-05
4.65545e-05
1.23357e-05
5.15423e-05
2.41717e-05
5.23394e-05
2.64697e-05
0.000137494
0.000137589
0.000137585
0.000137585
0.000137586
0.00013758
0.000137582
0.000137579
0.000137559
0.000137573
0.000137498
0.000137593
0.000137584
0.000137581
0.000137458
0.000136731
0.000137603
0.000135092
0.000137521
0.000137568
0.000137461
0.000137478
0.000137563
0.00013758
0.000137556
0.000136973
0.000135558
0.000136263
0.000136868
0.000137577
0.000137581
0.00013762
0.000137419
0.000137568
0.00013614
0.000136798
0.000137468
0.000137601
0.000137284
0.000137552
0.000137542
0.000137493
0.00013714
0.000137415
0.000137539
0.000137622
0.000137542
0.000137207
0.000137497
0.000137362
0.000137572
0.000137494
0.000137526
0.000137575
0.000137176
0.000137401
0.000137591
0.000136928
0.0001375
0.000137097
0.000137431
0.00013741
0.000137525
0.000136823
0.000137427
0.000137634
0.000137503
0.000137509
0.00013734
0.000137426
0.000137414
0.000137323
0.000137406
0.000137582
0.000137341
0.000137574
0.000137363
0.000137536
0.000137452
0.000137428
0.000137559
0.000137263
0.000137587
0.000137314
0.000137358
0.000137611
0.000137502
0.000137424
0.000137536
0.000137075
0.00013752
0.000137409
0.000137535
0.000137542
0.000137171
0.000137494
0.000136646
0.000137816
0.000136431
0.000136604
0.000137511
0.000137266
0.000137625
0.000137631
0.000137383
0.000137562
0.00013743
0.00013754
0.000137432
0.000137446
0.000137472
0.000137492
0.000137195
0.000137573
0.00013724
0.00013701
0.000137549
0.000137576
0.000137063
0.000137591
0.000137435
0.000137479
0.000137544
0.000137582
0.000137414
0.000137111
0.000137537
0.000137811
0.000137432
0.000137434
0.000137553
0.000137561
0.00013759
0.000137428
0.000137439
0.000137546
0.000137587
0.000137576
0.000137544
0.000137603
0.00013742
0.000137519
0.000137045
0.000137591
0.000137333
0.00013754
0.000137603
0.000137505
1.95327e-05
3.12146e-05
0.000137311
0.000137559
0.000137575
0.000137305
0.00013757
0.00013747
0.000137588
0.000137557
0.000137173
0.000137542
0.000137514
0.00013756
0.000137571
5.54429e-08
0.000137061
0.000137547
0.000137535
0.000137328
0.000137367
0.000137367
0.00013754
0.000137323
0.000137585
0.000137441
0.000137677
0.000137521
0.000137292
0.000137321
0.000137489
0.000137431
6.05632e-05
0.000137547
0.000137532
0.000137492
0.00013759
0.00013747
0.000137488
0.000137471
0.000137302
0.000137561
0.000138685
0.000137239
0.000137406
0.000137375
0.000137605
0.000137366
0.000137396
0.000137512
0.000137491
2.95103e-05
3.74708e-05
4.45395e-05
1.67568e-05
0.000137204
4.34294e-05
3.6544e-05
0.000137575
2.81501e-05
2.51396e-05
5.15701e-05
1.74644e-05
5.47894e-05
1.54281e-05
5.73173e-05
1.30435e-05
5.95156e-05
1.10228e-05
5.22594e-05
3.22879e-05
3.92515e-05
2.30871e-05
0.00013718
0.000137593
0.000137447
0.000137456
0.000134308
0.000138574
0.000137586
0.000137551
0.000137305
0.000137592
0.000137542
0.000137561
0.00013756
0.000137378
0.000137096
0.000137548
0.000137523
0.0001374
0.000137225
0.00013748
0.000136679
0.000137454
0.000137599
0.000137561
0.000137281
0.00013762
0.00013728
0.000137422
0.000137282
0.000136372
0.000137562
0.000137575
0.000137613
0.000137371
0.000137394
0.000137295
0.000137459
0.000137302
3.97577e-05
3.41642e-05
4.60206e-05
2.26453e-05
0.000137629
0.000137341
3.22178e-05
4.16967e-05
4.85512e-05
1.9794e-05
0.000137516
0.000137522
0.000137526
0.000137444
0.000138608
0.000137466
0.000137256
0.000137559
0.000137406
0.000136605
0.00013748
0.00013745
7.06119e-05
0.000136602
0.000137594
0.000137527
0.000137318
0.000137576
0.000137584
0.000137497
0.000137243
0.000137428
0.0001375
0.000137194
0.000137521
0.000136477
0.00013731
0.000137498
0.000137483
0.000111973
0.000137303
0.000136849
0.00013728
0.000137611
0.000137307
1.83487e-05
3.02096e-05
4.59683e-05
3.83874e-05
2.53906e-05
5.77606e-06
5.67538e-05
8.33474e-06
5.45668e-05
1.09197e-05
5.26857e-05
1.31989e-05
5.06535e-05
1.57256e-05
4.84274e-05
2.22164e-05
4.20218e-05
4.05055e-05
3.34586e-05
3.54583e-05
2.94588e-05
2.08703e-05
2.72552e-05
0.000137589
0.000116731
0.000137231
0.000137315
0.000137591
0.000137464
0.000137592
0.000137347
0.000138731
0.00013756
0.000137556
0.000138703
0.000137254
0.000138477
0.000137229
0.000137497
0.00013729
0.000137599
0.000137294
0.000137117
0.000137129
0.000138501
0.000138573
0.000137597
0.000137593
0.000137573
0.000137536
0.000137579
0.00013713
0.000137412
0.0001376
0.000137339
0.000138737
0.000137455
0.000137332
0.000137232
0.000137556
0.000137562
0.000136867
0.000134324
0.000136368
0.000137093
0.000137252
0.000137292
0.000138674
0.000137593
0.000137498
0.000137755
0.000137036
0.000137234
0.000137588
0.000137554
0.000137465
0.000137501
0.000136983
7.03627e-05
5.44336e-05
0.000137499
0.000137524
0.000136792
0.00013641
0.000137555
0.000136914
0.000136833
0.000138724
0.000137349
0.000137527
0.000137282
0.000137579
0.000132683
6.71172e-05
0.000137624
9.22517e-05
8.80518e-06
3.10434e-06
0.000137493
0.000137439
0.000137553
0.000137593
0.000137607
0.000137602
0.000137548
0.000137483
2.16311e-06
0.000136593
0.000137583
0.000137514
0.000135275
0.000137596
0.000137594
0.000135927
0.000137599
0.000137557
0.000135391
0.000137562
8.87331e-05
0.000137594
0.000136959
0.000137526
0.000136038
0.000137169
0.000137027
0.000137705
0.000137567
0.00013753
0.000137596
0.000137634
0.000137381
0.000129602
)
;

boundaryField
{
    back
    {
        type            empty;
    }
    ingreso
    {
        type            zeroGradient;
    }
    salida
    {
        type            fixedValue;
        value           uniform 0;
    }
    front
    {
        type            empty;
    }
    defaultFaces
    {
        type            zeroGradient;
    }
}


// ************************************************************************* //
