/*--------------------------------*- C++ -*----------------------------------*\
  =========                 |
  \\      /  F ield         | OpenFOAM: The Open Source CFD Toolbox
   \\    /   O peration     | Website:  https://openfoam.org
    \\  /    A nd           | Version:  7
     \\/     M anipulation  |
\*---------------------------------------------------------------------------*/
FoamFile
{
    version     2.0;
    format      ascii;
    class       volScalarField;
    location    "41";
    object      p;
}
// * * * * * * * * * * * * * * * * * * * * * * * * * * * * * * * * * * * * * //

dimensions      [0 2 -2 0 0 0 0];

internalField   nonuniform List<scalar> 
591
(
0.000123966
0.000123984
0.000123994
0.00012395
0.000123951
0.000124027
0.000124022
0.000123983
0.000117021
0.000123995
0.000124163
0.000122896
0.000123996
0.000119771
0.000123984
0.000124039
0.000123938
0.000124024
0.000122011
0.000123366
0.000123958
-3.51319e-06
0.000124162
0.000123961
0.000124121
0.000123981
0.000124065
0.000124082
0.000123993
0.000124012
0.00012414
0.000124118
0.000124136
0.000124134
0.000124137
0.000123468
0.000124132
0.000123965
0.000124157
0.000124076
0.000124054
0.000124129
0.000123991
0.00012401
0.000124126
0.000124144
0.000119288
0.000124148
0.000123998
0.000124112
0.000124085
0.000124122
2.3942e-05
3.05962e-05
4.78634e-05
0.000123998
0.000124152
0.000124135
0.000124146
0.000123967
0.000124051
0.000123986
0.000123988
0.00012404
0.000122613
0.000123987
0.000123992
0.000124143
0.000120781
0.000124003
0.000123994
0.00012415
0.000124111
0.00012413
0.000124136
0.000124112
0.000123961
0.000124147
0.000123965
0.00012389
0.000123744
0.000124151
0.000124113
0.000124084
0.000124159
0.000123976
0.000124068
0.000124141
0.000124105
0.000123858
0.000124118
0.000124054
0.000124076
0.00012397
0.000124157
0.000124112
0.000123673
0.000123571
0.000123711
0.000124161
0.000124073
0.000123982
0.000124165
0.000123953
0.000124165
0.000123991
0.000123983
0.000124115
0.000124155
0.000124159
0.000124045
0.000124133
0.000124004
0.00012414
0.00012416
0.000124136
0.000124086
0.000124091
0.000123643
0.000124053
0.000123988
0.000123998
0.000124045
0.000123974
0.000124131
0.000120265
0.000124163
0.000124138
0.000123743
0.000124136
0.000123979
0.000123667
0.000124098
0.000124095
0.000124139
0.000123998
0.000122648
0.000124164
0.000123984
0.000123645
0.00012371
0.000124066
0.000124142
0.000124157
0.000124152
7.61086e-06
3.67493e-06
2.07712e-06
3.81673e-05
3.67101e-05
5.67184e-06
3.83132e-05
1.57487e-05
3.72898e-05
1.78141e-05
0.000123987
0.000123976
0.00012415
0.000124148
0.000124154
0.000124152
0.000124146
0.000124143
0.000124148
0.000124148
0.000124109
0.000124155
0.00012415
0.000124156
0.000124087
0.000123448
0.000124157
0.000122186
0.000124131
0.000124139
0.000124081
0.000123995
0.000124139
0.000124149
0.000124145
0.000123555
0.000122534
0.000123107
0.000123514
0.000124142
0.000124147
0.000124082
0.000123961
0.000124139
0.000123021
0.000123371
0.000123963
0.000124138
0.000123833
0.000124132
0.00012414
0.000124112
0.000123804
0.00012395
0.000124138
0.000124149
0.000124143
0.000123937
0.000124125
0.000123933
0.000124157
0.000123984
0.000123981
0.000124153
0.00012377
0.000123952
0.000123995
0.000123616
0.000124103
0.000123762
0.000124048
0.000124052
0.000124129
0.000123532
0.000124041
0.00012394
0.000123948
0.000124113
0.000123869
0.000124031
0.000123939
0.000123846
0.000123941
0.000124159
0.000123912
0.000124152
0.000123993
0.000124127
0.000123983
0.000123981
0.00012416
0.000123882
0.00012415
0.000123874
0.000123921
0.000123991
0.000123967
0.000123999
0.000123987
0.000123749
0.000123958
0.000123906
0.00012412
0.000123979
0.000123815
0.000124107
0.000123374
0.000123918
0.000123273
0.000123147
0.000123973
0.000123938
0.000123972
0.000123969
0.000123926
0.000124158
0.000124015
0.000124098
0.000124017
0.000124019
0.000124032
0.000124107
0.000123761
0.000124153
0.000123799
0.000123691
0.000124005
0.000124127
0.00012371
0.000124153
0.000124054
0.000124096
0.000124111
0.000123999
0.000123961
0.000123773
0.000123934
0.000123951
0.000124006
0.000124052
0.000124126
0.000124138
0.000124146
0.000123914
0.000124012
0.000124132
0.00012414
0.000124136
0.000123936
0.000124147
0.000124019
0.000124123
0.000123902
0.000124149
0.000123893
0.000124127
0.000124029
0.000123961
1.16452e-05
2.1916e-05
0.00012393
0.000123989
0.000124155
0.000123922
0.000124156
0.000124001
0.000124149
0.000124128
0.00012388
0.000124122
0.000123955
0.000124151
0.000123993
-2.11169e-07
0.000123834
0.000124131
0.000124127
0.000123841
0.000123967
0.000124003
0.000124122
0.000123903
0.000124143
0.000124035
0.000123987
0.000124121
0.000123949
0.000123874
0.000123901
0.000124001
4.74507e-05
0.000124138
0.000124121
0.000123982
0.000124144
0.000124061
0.000124006
0.000123983
0.000123982
0.000124131
0.000124013
0.000123915
0.000124018
0.000123918
0.000124143
0.000123926
0.000123974
0.000124013
0.000124096
1.98778e-05
2.73069e-05
3.43047e-05
9.63807e-06
0.000123963
3.30638e-05
2.60182e-05
0.00012414
1.90792e-05
1.70382e-05
3.81979e-05
7.56645e-06
3.99523e-05
5.60363e-06
4.08478e-05
3.69543e-06
4.28315e-05
1.88433e-06
3.6403e-05
2.31951e-05
2.94454e-05
1.49996e-05
0.000123836
0.00012415
0.000124032
0.000124039
0.000120957
0.000124091
0.000124146
0.000124117
0.000123936
0.000124151
0.000124146
0.000124133
0.000124131
0.0001239
0.000123983
0.000124129
0.000124134
0.000123974
0.000123858
0.000123884
0.000123468
0.000123926
0.000124161
0.000124137
0.000123994
0.000124159
0.00012384
0.000124002
0.000123797
0.00012292
0.000124131
0.000124142
0.00012416
0.000123847
0.000124013
0.000123798
0.000124003
0.000123989
2.6052e-05
2.18758e-05
3.30429e-05
1.16234e-05
0.000124166
0.000123844
1.98237e-05
2.82616e-05
3.56116e-05
9.58346e-06
0.000123976
0.000124086
0.00012394
0.000123946
0.000123994
0.000124093
0.000123886
0.000124128
0.000124057
0.000123163
0.000123952
0.000123919
5.93311e-05
0.000123287
0.000124155
0.000123972
0.000123876
0.000124145
0.000124147
0.000123959
0.000123754
0.000123989
0.000124062
0.000123834
0.000124103
0.00012297
0.000123931
0.000123929
0.000124101
0.00010087
0.00012395
0.000123552
0.000123909
0.000124157
0.000123806
1.0899e-05
2.1117e-05
3.53772e-05
2.82102e-05
1.36752e-05
5.7574e-08
4.20716e-05
2.69297e-06
4.01629e-05
4.7631e-06
3.94265e-05
6.81284e-06
3.86343e-05
8.85715e-06
3.73002e-05
1.36789e-05
3.17331e-05
3.05954e-05
2.39433e-05
2.52624e-05
1.77759e-05
1.29444e-05
1.5723e-05
0.00012415
0.000102496
0.000123965
0.000123905
0.000124154
0.000124048
0.000124159
0.00012388
0.000124024
0.000124124
0.000124119
0.000124139
0.000123885
0.000123998
0.000123865
0.000124088
0.000123933
0.000124154
0.000124012
0.000123843
0.000123847
0.00012401
0.000124001
0.000124161
0.000124152
0.000124157
0.000124123
0.000124161
0.000123798
0.000123989
0.000124156
0.000123933
0.000124065
0.000123989
0.000124008
0.000123863
0.000124122
0.000124121
0.000123435
0.000121425
0.000123165
0.00012371
0.000123989
0.000123815
0.000124006
0.000124159
0.000124117
0.000123995
0.000123598
0.000123582
0.000124155
0.000124125
0.000124012
0.000124092
0.000123635
5.83507e-05
4.01258e-05
0.000124097
0.000124114
0.000123478
0.000122815
0.000123972
0.000123694
0.000123439
0.000123992
0.000123869
0.000124139
0.000124016
0.000124046
0.00011906
5.44906e-05
0.000124012
8.12466e-05
1.86565e-06
-3.81415e-07
0.000123982
0.000123953
0.000124124
0.000124161
0.000124147
0.000124155
0.00012415
0.000123969
-2.30335e-06
0.000122896
0.000124002
0.000124104
0.000122072
0.000124154
0.000124154
0.000122351
0.000124082
0.000124126
0.000121738
0.000124153
7.64023e-05
0.000124152
0.000123691
0.000124117
0.000122444
0.000123689
0.000123731
0.000124016
0.000124156
0.000124111
0.000124153
0.000124164
0.000123997
0.000116244
)
;

boundaryField
{
    back
    {
        type            empty;
    }
    ingreso
    {
        type            zeroGradient;
    }
    salida
    {
        type            fixedValue;
        value           uniform 0;
    }
    front
    {
        type            empty;
    }
    defaultFaces
    {
        type            zeroGradient;
    }
}


// ************************************************************************* //
