/*--------------------------------*- C++ -*----------------------------------*\
  =========                 |
  \\      /  F ield         | OpenFOAM: The Open Source CFD Toolbox
   \\    /   O peration     | Website:  https://openfoam.org
    \\  /    A nd           | Version:  7
     \\/     M anipulation  |
\*---------------------------------------------------------------------------*/
FoamFile
{
    version     2.0;
    format      ascii;
    class       surfaceScalarField;
    location    "41";
    object      phi;
}
// * * * * * * * * * * * * * * * * * * * * * * * * * * * * * * * * * * * * * //

dimensions      [0 3 -1 0 0 0 0];

internalField   nonuniform List<scalar> 
1111
(
6.29756e-09
1.32901e-08
-1.56536e-08
-3.93403e-09
6.42566e-09
-1.17205e-08
1.15924e-08
-1.46813e-08
4.81363e-09
9.50471e-09
3.62943e-10
3.38298e-10
-4.07375e-10
-1.41182e-08
1.41873e-08
-1.401e-08
1.37852e-08
5.63065e-10
-1.57584e-09
1.48615e-08
2.14286e-09
-4.0003e-09
9.73598e-09
-1.09098e-08
5.17415e-09
-6.65298e-09
-1.25981e-08
1.25583e-08
6.69286e-09
-5.06655e-08
-2.58127e-08
7.64782e-08
-8.08557e-09
7.53276e-09
6.97847e-09
3.63735e-09
3.46887e-10
-3.71235e-09
-2.71884e-10
1.56251e-08
-1.58109e-08
-2.29372e-08
2.3123e-08
-9.6197e-09
-8.00955e-09
8.8064e-09
8.82286e-09
-3.50915e-08
1.75027e-08
-3.2235e-08
4.98238e-08
9.54399e-09
-1.9199e-09
-1.42771e-08
-2.39446e-09
2.91168e-09
-3.8034e-09
3.28619e-09
-3.709e-09
1.32216e-08
1.94977e-09
-1.14624e-08
8.87174e-09
-2.2515e-09
-1.50346e-08
8.41433e-09
3.78934e-08
-3.07059e-08
-7.18742e-09
-1.92627e-08
-1.54394e-11
1.7516e-08
1.76215e-09
-6.21469e-10
3.95711e-09
-1.79223e-08
1.45866e-08
-6.12425e-08
-3.96672e-09
6.52093e-08
1.75843e-10
-1.34183e-09
-3.81419e-10
1.54741e-09
-1.19025e-09
-1.34412e-08
-2.08998e-10
-3.40196e-10
3.12771e-10
2.36423e-10
-1.00128e-08
-8.10605e-09
1.24259e-08
5.69289e-09
7.66462e-10
-2.17042e-09
-8.49664e-09
9.90059e-09
7.87932e-09
9.99804e-10
-8.72212e-09
-1.57009e-10
-2.82589e-09
-7.79229e-09
1.08192e-08
-2.00983e-10
1.13478e-08
-4.63465e-10
-2.01263e-09
-1.04363e-09
1.01686e-09
9.93767e-11
-7.26052e-11
-3.39527e-10
9.15272e-10
5.04443e-10
-1.08019e-09
-6.40073e-10
-4.37329e-11
6.81925e-10
1.88038e-12
2.62207e-11
-1.067e-09
9.38457e-11
9.46933e-10
-4.36326e-11
-9.73778e-10
7.25842e-10
-1.83282e-08
-1.6603e-09
-5.48858e-10
6.10373e-11
-1.52252e-10
1.33978e-08
-1.33022e-08
3.86154e-09
-4.4972e-10
6.62099e-10
4.2955e-10
-6.41928e-10
-5.56889e-10
-2.47281e-09
1.88586e-09
1.14385e-09
-2.12655e-09
9.2972e-09
-1.1171e-08
-4.16428e-10
-2.11272e-10
7.88423e-11
-8.79594e-09
1.00817e-08
-9.37129e-09
1.18758e-08
-1.69452e-08
5.07482e-09
-5.44886e-12
9.92332e-11
-2.24224e-10
-2.91437e-10
2.82565e-10
9.27472e-10
-1.93175e-10
-5.9798e-08
7.43545e-08
-1.45565e-08
1.17283e-09
-3.83802e-10
-1.35599e-09
5.66962e-10
1.07766e-09
1.02946e-08
-1.37138e-08
2.34154e-09
-7.11048e-10
6.88309e-09
-8.32638e-09
2.15433e-09
-6.43858e-09
5.80464e-09
5.46341e-09
-4.82946e-09
-7.04622e-09
-2.29033e-09
2.17497e-09
7.16159e-09
-1.83627e-10
-9.09121e-08
9.12998e-08
-2.0405e-10
-2.53984e-10
-8.97553e-08
9.01609e-08
-1.51619e-10
8.3077e-08
-1.50448e-09
1.16371e-10
-8.16889e-08
-3.20483e-09
-1.28625e-10
8.35693e-10
9.37394e-10
-6.00255e-10
4.05788e-09
-1.75217e-09
3.27454e-09
-5.58025e-09
-1.13568e-09
1.03444e-09
-1.4984e-08
6.60571e-09
9.21741e-09
9.89718e-10
-9.90396e-09
-3.03167e-10
-6.30767e-09
1.2847e-08
1.48314e-09
-8.02246e-09
1.42691e-08
-4.02359e-09
3.24634e-09
-1.34919e-08
1.5417e-08
1.74548e-09
-1.73367e-09
-5.8543e-10
-1.98507e-08
-7.16304e-09
2.75992e-08
1.3716e-08
-8.24285e-09
-2.245e-09
7.61941e-09
-1.16821e-08
-1.27626e-10
2.65835e-10
-1.4942e-09
-3.67555e-08
-2.30425e-08
7.98098e-09
1.91978e-11
3.87564e-09
-6.93325e-09
1.07187e-08
6.29627e-09
-7.08801e-10
4.0651e-10
5.7258e-10
-2.70289e-10
5.94545e-09
-4.61334e-09
3.54427e-09
-4.87638e-09
-6.55811e-10
-7.26424e-10
3.15237e-10
8.30488e-10
-7.80374e-10
-1.74487e-10
-1.17131e-09
1.00627e-09
-1.75466e-08
2.5049e-09
1.44749e-09
1.35942e-08
3.07464e-10
-8.34548e-10
-1.81717e-10
-3.82665e-09
-1.47585e-08
1.03849e-09
5.67581e-09
1.17385e-08
-5.24312e-09
-1.21712e-08
1.64375e-08
5.5494e-10
-1.59045e-08
-1.08799e-09
-7.94751e-10
5.63681e-10
6.3758e-10
-8.92668e-10
4.79618e-10
4.1305e-10
-7.09399e-09
-3.79916e-09
4.45457e-09
-3.86803e-10
5.60716e-10
-1.73914e-10
1.32327e-09
-1.51627e-08
-7.79297e-10
8.89705e-09
-1.02443e-08
-1.16393e-09
-1.06715e-09
1.25565e-08
4.39736e-09
-4.14754e-09
-1.28063e-08
2.70621e-10
6.95781e-09
-7.65436e-09
6.50119e-09
-1.94262e-09
-8.4704e-09
7.79337e-09
2.61964e-09
-1.77962e-09
5.91515e-10
-1.35703e-08
-2.35647e-10
-1.51155e-10
-4.40464e-10
1.21074e-09
-7.81649e-09
7.61015e-10
1.72798e-08
-1.60327e-09
-1.40281e-08
1.52559e-08
-1.22784e-09
1.19595e-08
1.40812e-08
-1.56246e-08
-1.04161e-08
-8.17898e-10
1.38619e-09
-5.68293e-10
1.30727e-09
-1.65574e-09
3.48468e-10
2.21263e-09
-3.1273e-09
9.14678e-10
1.87341e-09
-1.56203e-09
-3.11377e-10
-1.16238e-08
3.62624e-10
1.12612e-08
2.60055e-09
-7.27141e-10
8.86819e-09
-1.51368e-08
6.60387e-09
-7.75538e-09
7.95796e-11
3.97875e-09
-4.20981e-10
-2.94744e-09
3.02702e-09
-7.40434e-09
8.74461e-09
-1.34027e-09
-8.73443e-10
4.1032e-09
8.28126e-10
1.71571e-08
-1.45299e-08
-1.54954e-09
-5.46371e-09
5.15981e-09
-1.44827e-09
-2.57181e-10
6.63788e-09
-6.65314e-09
1.52593e-11
7.06139e-09
4.34747e-09
2.40116e-10
-1.58028e-08
1.03987e-08
1.73636e-08
5.68458e-09
8.33461e-09
8.24476e-09
-6.78905e-09
8.21602e-10
-1.24454e-08
1.26671e-09
1.52681e-10
-1.27721e-08
3.46932e-09
-4.42301e-10
1.32671e-08
-1.27121e-08
-1.23069e-10
-1.08449e-09
-1.3696e-08
7.14744e-09
9.23296e-10
-4.89678e-11
-8.93307e-09
5.23197e-09
-3.12914e-08
-1.25598e-08
-2.44828e-09
1.31206e-09
1.37728e-08
1.09655e-08
-1.0643e-08
-1.40953e-08
1.61318e-08
-3.12107e-09
-1.30108e-08
1.74681e-09
3.85146e-09
-1.45037e-09
-9.85133e-10
-1.03362e-09
1.36048e-09
6.58272e-10
-3.03514e-10
4.33564e-10
4.4253e-10
6.21455e-08
-6.21588e-08
1.32699e-11
6.20693e-08
-6.23627e-08
2.93423e-10
8.26766e-10
6.4752e-08
-6.55794e-08
8.27374e-10
6.41456e-08
6.06484e-10
-2.17203e-10
-6.65283e-08
9.48849e-10
-6.20275e-08
6.18973e-08
1.30231e-10
1.32501e-09
-6.78533e-08
-6.21926e-08
1.65082e-10
1.2105e-08
-1.12661e-09
1.74505e-09
-3.73537e-09
3.11692e-09
4.40186e-10
-1.30287e-09
1.15343e-09
-8.25485e-10
1.50209e-09
-1.77973e-09
1.10312e-09
1.56139e-09
-1.73072e-09
4.35168e-10
-1.04426e-10
-3.32406e-09
3.08513e-09
-2.34871e-09
2.58763e-09
-8.62597e-10
-2.88468e-09
2.62067e-09
-3.87238e-09
-5.57043e-09
6.60966e-10
-7.57188e-10
1.45801e-09
1.19751e-09
-6.61326e-09
8.02311e-09
2.93762e-09
2.04075e-08
-4.27563e-09
-8.30539e-10
3.03904e-10
1.1876e-09
-1.01954e-08
-2.656e-08
5.48514e-09
-4.49115e-09
-3.09885e-09
2.10486e-09
1.37336e-10
1.16408e-11
5.32949e-10
-2.82678e-09
3.52616e-09
8.61926e-09
9.18857e-10
-5.75674e-10
2.23412e-09
-2.52104e-09
2.27246e-09
1.47122e-08
1.31418e-08
-2.68924e-08
3.2322e-08
6.15258e-09
-2.28223e-08
-1.02227e-08
1.80128e-08
-1.76366e-08
1.05893e-08
-2.72326e-10
-1.63952e-11
-1.442e-09
-1.92023e-09
-2.46537e-09
3.87497e-09
1.46742e-08
-6.02869e-10
-1.34798e-08
2.59232e-11
-2.84655e-09
-6.40493e-11
1.53198e-08
1.74052e-08
1.35787e-08
7.11104e-10
-1.53328e-09
-1.27565e-08
-1.8896e-09
5.99755e-09
1.22347e-08
-8.00606e-10
-1.25766e-09
-3.51233e-09
2.72893e-09
3.86853e-09
2.41615e-09
1.4134e-08
4.12014e-09
-1.38568e-08
1.7437e-08
-1.72425e-09
2.86333e-09
-3.6454e-09
1.88318e-09
-4.53479e-09
1.2833e-08
-1.20072e-08
-1.38638e-08
6.07899e-10
8.72113e-09
-1.91917e-09
1.61765e-09
1.75953e-09
-8.7516e-09
5.25799e-10
-4.33397e-09
-6.02271e-09
1.21567e-08
-1.48856e-08
1.41808e-09
1.65466e-09
-2.15411e-09
1.63829e-08
-1.58834e-08
-9.72152e-10
1.39479e-08
2.74341e-09
-4.02768e-09
-1.38525e-08
7.27187e-09
-1.69563e-08
-7.95213e-09
6.49562e-09
5.83792e-09
1.42936e-08
-9.52803e-09
3.16161e-09
8.98607e-09
9.84127e-09
3.86641e-09
-4.1067e-09
2.14048e-08
-1.87653e-08
4.63233e-09
-1.00405e-08
2.25927e-09
5.3819e-09
1.35025e-08
-7.6675e-11
1.24925e-08
-1.3388e-08
-1.69149e-09
2.49011e-09
-1.62765e-09
8.29033e-10
1.07748e-08
-6.36378e-09
7.3275e-09
-1.04432e-08
1.39244e-09
-4.75572e-09
1.12081e-08
-1.16955e-08
-7.44908e-09
8.97317e-09
9.25069e-09
1.26071e-08
9.42501e-10
-1.36263e-08
1.71007e-09
8.47919e-10
-1.08649e-08
-6.72038e-09
1.01362e-08
-1.75658e-09
2.52479e-09
-8.77023e-09
4.74768e-09
-5.11575e-09
1.1261e-08
-3.48937e-09
-1.14339e-08
3.66226e-09
-4.52865e-09
1.10339e-08
2.12068e-09
1.20704e-09
-5.05869e-09
-1.74606e-08
1.03971e-08
1.21222e-08
8.74374e-10
-1.07437e-08
-9.68627e-09
1.53713e-08
1.22153e-08
2.71726e-09
-9.55065e-09
-1.31967e-08
-2.74234e-10
-1.24945e-08
2.67537e-10
-6.45626e-10
1.11973e-08
1.2385e-08
-8.11308e-09
1.61918e-08
-1.55355e-08
3.46386e-09
-4.6866e-10
1.66922e-09
1.23937e-08
-3.85891e-09
-1.24598e-08
-5.11964e-09
7.55299e-10
4.51702e-09
1.19038e-08
-7.42943e-09
7.77971e-10
-1.21355e-09
1.61465e-09
-2.09259e-09
6.10434e-09
2.58898e-08
-5.54939e-10
-1.22181e-08
1.2773e-08
2.80601e-08
-2.19712e-08
2.19822e-08
1.92274e-08
-1.25325e-08
-2.60148e-09
1.48252e-08
1.50016e-10
-1.20535e-08
-2.90985e-10
-6.02059e-09
-1.97216e-09
2.39472e-09
1.69813e-09
6.44605e-11
-1.07627e-08
1.091e-08
-2.11758e-10
2.55105e-09
-5.51636e-09
-1.05868e-08
1.0259e-08
-7.03671e-10
-1.03852e-08
-2.87885e-11
-1.05788e-08
-2.87396e-09
-1.18084e-08
2.28217e-09
7.75381e-09
5.07339e-09
1.75163e-10
-1.15064e-08
1.13957e-08
6.80867e-10
-8.47103e-09
5.27124e-09
-9.23548e-10
2.69632e-09
-3.15457e-09
-1.29416e-08
-1.3252e-08
1.28722e-08
-1.00502e-08
-1.58194e-08
1.00668e-08
9.03963e-09
8.51385e-10
2.58857e-09
-1.48066e-08
1.08817e-08
1.70803e-09
4.0412e-09
3.81758e-10
-6.25624e-10
-4.11945e-10
-4.02451e-09
2.70601e-09
-1.52804e-09
3.55244e-10
-4.14887e-10
5.96427e-11
-2.51721e-09
1.25976e-08
2.13493e-09
2.55415e-09
-9.55759e-10
-1.81572e-09
-1.20913e-10
-2.56858e-09
-6.89133e-10
1.26546e-08
9.77157e-09
-4.98576e-10
7.09764e-09
-1.19185e-09
-5.40721e-09
-9.6476e-09
-5.09574e-09
2.77368e-10
7.78771e-11
4.66164e-09
1.36409e-09
-1.67694e-08
-5.98483e-10
-9.28547e-10
-2.37198e-09
8.4378e-10
2.62672e-09
6.19326e-08
-9.77012e-11
-6.18349e-08
6.23437e-08
1.9411e-10
-6.25379e-08
-1.41829e-08
8.11502e-11
1.45393e-08
-4.37588e-10
2.7127e-09
-2.06954e-09
2.80562e-09
1.78871e-09
-4.37309e-09
-5.17243e-10
-6.48143e-10
5.25619e-10
-1.47764e-10
6.17387e-10
-4.469e-10
1.90298e-08
1.12174e-09
-1.54899e-08
-3.08834e-10
-1.96192e-09
1.21458e-08
2.20978e-09
1.74785e-09
5.14573e-09
-1.84114e-09
-7.72151e-08
-2.41742e-08
-4.79443e-09
1.56996e-08
2.31638e-09
-7.41419e-10
-3.35521e-09
-1.3718e-09
6.99027e-10
-5.84884e-10
-1.21158e-08
-3.07438e-10
1.24233e-08
-1.06297e-08
-6.66313e-09
1.05724e-08
-9.26451e-09
8.82889e-09
-1.31009e-10
1.8797e-09
1.1593e-08
-1.13424e-08
-2.50615e-10
7.487e-10
6.57304e-11
9.80458e-09
1.07664e-09
-1.15525e-09
-3.47561e-10
-1.42276e-08
-5.22827e-10
-1.34179e-08
1.21473e-08
-1.14765e-08
-6.60022e-08
6.49535e-08
1.0487e-09
4.68246e-10
-4.56605e-10
1.16499e-08
-4.33855e-10
1.89685e-11
-1.96689e-09
2.77022e-09
-3.3798e-09
-1.35241e-08
-1.68037e-09
2.57927e-09
-4.70709e-09
-1.38089e-08
1.74656e-09
5.61636e-09
9.42645e-09
-8.75139e-09
-4.63503e-10
2.9648e-11
-9.35686e-09
-1.27575e-08
1.51126e-10
-6.27193e-08
2.33108e-10
6.24862e-08
6.9678e-10
6.34488e-08
-2.26159e-10
-9.6512e-10
-1.43434e-08
1.10843e-10
-6.33825e-08
6.32716e-08
1.82653e-10
-6.29246e-08
6.27419e-08
5.37693e-10
6.18153e-08
1.55569e-10
-6.19709e-08
6.16492e-08
1.66058e-10
-8.78941e-08
8.85036e-08
-3.07622e-12
9.33738e-08
-9.30858e-08
-2.74796e-10
-8.66337e-08
-4.33019e-10
9.33496e-08
-1.92924e-10
-8.49178e-08
-7.67048e-10
9.34781e-08
1.64863e-10
-5.15702e-10
1.95355e-09
9.23513e-08
-6.93578e-08
6.21626e-08
-6.23462e-08
-6.29733e-08
6.15068e-08
1.42448e-10
-2.98429e-09
2.71701e-09
-1.35895e-08
8.46819e-11
1.92686e-10
2.228e-09
9.46509e-09
-1.17166e-08
3.82102e-08
-3.44339e-08
-1.65485e-08
1.38527e-08
-8.11597e-11
-2.1969e-10
2.92545e-10
9.18853e-10
-1.81313e-10
4.03418e-10
4.65675e-09
1.04173e-09
-3.8153e-09
-3.93686e-10
4.54724e-10
-3.14843e-10
-2.41947e-09
1.27817e-08
2.23536e-09
-1.44482e-08
-2.37285e-09
-3.68239e-09
5.68737e-09
1.07424e-09
-2.50474e-09
1.41381e-08
-1.23633e-09
-3.92923e-09
5.7924e-09
-8.02922e-09
-1.90687e-08
-1.30498e-08
7.67457e-09
5.98317e-09
-3.15953e-10
-5.20093e-10
3.23076e-09
1.43711e-08
1.89768e-09
-1.40727e-09
-4.7446e-10
5.14571e-10
-2.97292e-10
1.5968e-08
-4.6259e-10
-1.58128e-08
-3.33726e-09
-2.1845e-09
2.88889e-10
-2.25402e-10
3.96853e-09
-1.77439e-08
6.33072e-10
-1.70218e-09
-2.32612e-09
-2.36578e-09
1.52323e-08
-9.05895e-08
-1.39997e-10
9.16856e-08
-1.91706e-10
-8.9169e-08
-4.75486e-10
9.30945e-08
-2.775e-10
-9.29147e-08
-6.30661e-10
-1.79866e-09
1.62015e-08
9.19923e-08
-1.9546e-10
3.14206e-11
-2.17425e-10
1.06944e-08
2.30816e-09
-9.23594e-09
-1.18922e-08
-5.63779e-09
8.46555e-09
1.38374e-09
-6.91167e-09
-6.35148e-09
9.05827e-09
-2.15609e-10
1.01615e-08
1.927e-08
-1.76757e-08
3.02386e-09
-1.24449e-08
3.00892e-09
-6.99988e-08
3.99655e-09
-2.03302e-08
-1.28297e-08
-5.99392e-10
-5.86174e-09
-1.53777e-08
9.18593e-09
-1.52139e-08
5.70881e-10
4.8276e-10
-1.52345e-09
-1.61572e-08
1.67239e-08
8.873e-09
-9.00162e-09
-5.44479e-09
1.49726e-08
-1.66671e-09
8.32276e-10
-1.44387e-09
5.12677e-10
1.2178e-08
3.40536e-09
7.09491e-08
-1.79607e-08
9.25228e-10
-1.46686e-08
-3.0089e-10
-3.47483e-10
-1.81164e-10
6.0973e-08
-6.12505e-08
-6.33511e-08
-6.312e-08
-6.23476e-11
-2.56244e-10
-9.25961e-08
-6.04527e-08
6.24063e-08
6.50699e-08
-6.02879e-08
6.45542e-08
-6.04808e-08
6.37871e-08
-6.07556e-08
6.33541e-08
9.23235e-08
3.79324e-10
-6.47945e-09
7.50523e-08
-6.51675e-08
1.04786e-10
-1.04786e-10
1.72805e-09
-3.75829e-10
1.54939e-08
-1.1811e-10
1.1811e-10
4.77751e-10
1.5384e-09
1.38904e-08
1.30208e-08
-2.75288e-09
3.73334e-09
6.34553e-09
1.94363e-09
4.58502e-10
-3.25827e-10
-2.90204e-09
1.43841e-08
1.48185e-08
-4.29347e-09
1.17127e-08
2.58692e-10
2.05315e-10
2.96675e-09
-1.00899e-09
-1.74975e-09
-5.94118e-09
-1.38048e-10
-4.80718e-10
1.52327e-08
3.58352e-10
1.52511e-10
1.59818e-08
-2.5812e-08
1.72711e-08
2.57562e-09
1.46446e-09
2.27627e-09
-3.57923e-09
1.89992e-08
-1.76962e-08
-1.30862e-10
7.90453e-10
-1.44492e-09
-7.91953e-08
-7.08027e-08
1.45982e-09
-1.04787e-09
7.21651e-10
2.28521e-08
1.84001e-08
-6.49012e-09
1.45948e-10
-4.47892e-09
-2.17382e-09
2.99002e-08
1.46477e-10
1.48089e-08
7.35758e-08
9.74988e-11
5.62627e-10
-2.15731e-10
-2.82906e-10
-3.85817e-09
2.42423e-08
-1.47881e-08
1.20241e-09
-1.40221e-08
-8.79007e-11
2.01632e-08
-2.86203e-08
8.99298e-10
2.45514e-09
-6.34897e-10
)
;

boundaryField
{
    back
    {
        type            empty;
        value           nonuniform 0();
    }
    ingreso
    {
        type            calculated;
        value           nonuniform List<scalar> 
14
(
-1.54286e-08
-1.54288e-08
-1.54288e-08
-1.54288e-08
-1.54286e-08
-1.54283e-08
-1.54288e-08
-1.54288e-08
-1.54286e-08
-1.54286e-08
-1.54288e-08
-1.5428e-08
-1.5428e-08
-1.54286e-08
)
;
    }
    salida
    {
        type            calculated;
        value           nonuniform List<scalar> 2(1.01389e-07 1.14611e-07);
    }
    front
    {
        type            empty;
        value           nonuniform 0();
    }
    defaultFaces
    {
        type            calculated;
        value           uniform 0;
    }
}


// ************************************************************************* //
