/*--------------------------------*- C++ -*----------------------------------*\
  =========                 |
  \\      /  F ield         | OpenFOAM: The Open Source CFD Toolbox
   \\    /   O peration     | Website:  https://openfoam.org
    \\  /    A nd           | Version:  7
     \\/     M anipulation  |
\*---------------------------------------------------------------------------*/
FoamFile
{
    version     2.0;
    format      ascii;
    class       volVectorField;
    location    "43.5";
    object      U;
}
// * * * * * * * * * * * * * * * * * * * * * * * * * * * * * * * * * * * * * //

dimensions      [0 1 -1 0 0 0 0];

internalField   nonuniform List<vector> 
591
(
(0.000816157 -3.70501e-05 1.21849e-18)
(0.000799207 -3.15765e-05 -6.62929e-19)
(0.000854299 -4.04627e-05 5.70078e-20)
(0.000845415 8.72613e-07 -1.49234e-19)
(0.000828834 1.38446e-05 2.25084e-19)
(0.000796302 -3.85123e-05 -1.38434e-19)
(0.000545099 -0.000351995 8.05375e-19)
(0.000798963 5.74191e-07 2.06711e-18)
(0.00574503 0.00249035 9.87796e-19)
(0.00078871 -1.6634e-05 2.43657e-18)
(5.43169e-05 0.000175627 1.21856e-18)
(0.000909169 0.00135082 9.40845e-21)
(0.00079479 8.62745e-06 1.29813e-18)
(0.00159643 0.00237337 -7.87845e-19)
(0.000801338 8.1623e-06 -4.38078e-19)
(9.85694e-05 -0.000236356 2.54441e-22)
(0.000133004 0.000674038 7.05382e-19)
(0.000822651 3.86991e-05 -4.90417e-19)
(0.00194963 0.000378553 4.7295e-19)
(0.00135183 0.000265629 -2.47282e-19)
(0.000832364 2.78214e-06 3.72239e-19)
(0.00340044 0.00656152 -8.13848e-20)
(3.21063e-05 7.41803e-05 2.71067e-19)
(0.000829894 -1.72677e-06 -4.51103e-19)
(1.54931e-05 -2.01576e-05 3.59114e-19)
(0.000759875 2.77866e-05 0)
(9.1138e-05 0.000479084 1.60025e-19)
(0.000524349 2.32979e-05 -1.78937e-19)
(0.00074822 5.11917e-05 1.15017e-18)
(0.000818278 2.61988e-05 5.84025e-19)
(6.36876e-05 -2.03566e-06 -3.67463e-24)
(4.1073e-05 -5.12649e-05 3.52359e-19)
(4.2764e-05 -3.71022e-06 -4.64175e-20)
(5.13251e-05 -1.09474e-05 0)
(6.01602e-05 -1.3841e-05 1.13193e-18)
(0.00116954 0.000128133 1.79979e-19)
(3.68087e-05 -6.50392e-06 4.47377e-20)
(0.000826147 1.39667e-05 3.64559e-23)
(3.1369e-05 4.81478e-05 2.66162e-19)
(3.94285e-05 -0.000131009 -8.55097e-19)
(0.000592952 -0.000198911 9.58996e-19)
(3.02028e-05 -8.41059e-06 4.55058e-20)
(0.000793193 -4.86129e-06 -1.57083e-18)
(0.00082549 2.81674e-05 -6.82379e-19)
(2.13299e-05 -1.00681e-05 0)
(6.00976e-05 9.43938e-06 8.52298e-20)
(0.00133236 0.00451503 8.93351e-19)
(8.19892e-05 2.0422e-05 8.64047e-20)
(0.000795558 2.09686e-05 0)
(0.000370993 -0.000170861 6.78154e-19)
(0.000374262 0.000278516 5.12138e-21)
(0.000387397 6.37308e-05 -1.0043e-18)
(0.00634727 0.0109416 -7.68405e-19)
(0.00622448 0.0107964 1.52934e-20)
(0.0056131 0.01038 1.45586e-18)
(0.000810565 1.09928e-05 0)
(7.16445e-05 3.53528e-05 0)
(0.000319984 2.7282e-05 1.03386e-23)
(6.85e-05 1.35925e-05 -3.4663e-19)
(0.000821359 -7.71675e-06 0)
(0.000618714 2.76039e-05 3.1774e-19)
(0.000821966 -2.02863e-06 2.21276e-18)
(0.000784234 1.23513e-05 -5.46304e-19)
(0.000795097 1.89018e-05 -3.15935e-19)
(0.00172013 0.000470417 5.42989e-19)
(0.000788674 2.83347e-06 -1.1547e-18)
(0.000819843 2.70926e-06 -5.24318e-19)
(8.89297e-05 1.38941e-06 -1.73497e-19)
(0.000681414 0.0022817 0)
(0.000823356 2.46414e-05 0)
(0.000763762 1.57353e-05 -1.38371e-18)
(4.17202e-05 1.8362e-05 0)
(0.000284047 0.000275224 3.26985e-19)
(4.6792e-05 -1.91182e-05 0)
(4.72616e-05 -6.48149e-06 1.59552e-19)
(2.56601e-05 -5.20392e-05 -3.36849e-20)
(0.000775989 6.93415e-05 2.47237e-19)
(4.84744e-05 1.27893e-05 0)
(0.00078965 5.69491e-05 4.47248e-19)
(0.000758256 0.000296757 2.1083e-19)
(0.000964458 5.97336e-05 -3.98161e-20)
(4.67764e-05 2.61209e-05 -4.52087e-20)
(7.02289e-06 -3.43164e-05 0)
(0.000424845 0.00022184 1.70263e-19)
(2.64701e-06 2.91974e-05 0)
(0.000769601 2.89049e-05 -6.09855e-19)
(0.000575849 -0.000118823 0)
(7.12287e-05 9.78061e-07 -1.74565e-19)
(5.12097e-06 -4.64366e-05 0)
(0.00081644 0.000246924 -3.41442e-19)
(4.93702e-06 -2.09773e-05 0)
(0.000416781 0.000324668 -1.27239e-23)
(0.000517031 0.000115405 0)
(0.000796312 4.94819e-05 -3.55836e-24)
(3.04478e-06 1.92094e-05 -4.21923e-20)
(0.000440783 -3.39234e-07 1.76447e-18)
(0.00102278 7.3098e-05 4.16259e-20)
(0.000896689 4.18432e-05 6.40899e-22)
(0.000729561 0.000656431 2.6962e-19)
(5.88527e-06 5.83923e-05 0)
(5.9997e-06 -8.05931e-05 -3.12532e-19)
(6.93873e-07 -0.000151907 -1.09927e-18)
(2.79414e-06 9.13355e-05 -5.96373e-19)
(0.000667283 -1.18276e-05 0)
(6.51739e-06 0.000117505 0)
(0.00079614 1.34222e-05 2.21601e-18)
(0.000772391 2.03367e-05 1.524e-18)
(0.000407951 -5.16939e-05 0)
(4.81051e-05 0.000227022 -8.95539e-19)
(-1.34219e-06 0.000189344 4.96531e-19)
(7.1426e-05 0.000439417 6.25232e-19)
(0.000299068 9.87724e-05 -9.37501e-19)
(0.000803429 1.65993e-05 1.36326e-19)
(0.000264383 -1.9496e-05 5.31488e-19)
(3.72653e-06 4.0458e-05 0)
(2.92725e-05 0.000304495 -1.09405e-18)
(0.000315346 0.000327937 -1.61772e-19)
(5.79646e-06 -6.3134e-05 1.46656e-19)
(0.000664612 0.000806097 0)
(0.000362271 0.00039182 5.74659e-20)
(0.000807546 3.86965e-06 1.07142e-18)
(0.000793885 -2.5325e-06 -2.68556e-18)
(8.43309e-06 -9.94532e-05 0)
(0.000707262 -2.39403e-05 -1.12384e-19)
(0.000319301 -8.09345e-05 1.24388e-18)
(0.00266415 0.000792769 -3.35936e-19)
(2.15016e-06 0.000148756 -6.13209e-19)
(-2.01896e-06 0.000181864 1.61939e-18)
(0.000774208 1.92686e-05 -3.89594e-20)
(6.99495e-05 -1.02667e-05 -7.50544e-19)
(0.000794906 2.35737e-05 -3.89512e-19)
(0.000822037 2.6601e-05 -4.1017e-20)
(4.77446e-05 0.000352976 -5.96814e-19)
(0.00047389 7.78471e-05 -4.94167e-19)
(5.44151e-05 -2.4792e-06 1.56232e-19)
(0.000821929 1.24578e-05 -1.07936e-18)
(0.00159396 0.000224047 -1.13633e-18)
(2.68168e-06 7.2657e-05 4.96467e-19)
(0.000803802 1.23449e-05 -4.96286e-19)
(0.000892833 0.000539237 -7.85469e-20)
(0.000134282 0.0008159 0)
(0.000565844 6.67493e-05 0)
(0.0002726 6.16999e-05 -1.61047e-18)
(6.66938e-05 6.30343e-05 -1.37476e-18)
(3.37366e-05 2.29545e-05 0)
(0.00424644 0.00740016 -1.01995e-20)
(0.00422509 0.00737211 3.16508e-20)
(0.00442706 0.00757538 -5.00189e-21)
(0.00420697 0.0077358 0)
(0.00419958 0.0076009 5.77216e-19)
(0.00424402 0.00740104 -9.19376e-20)
(0.00421028 0.00804425 4.84352e-19)
(0.00428898 0.00742051 0)
(0.00420788 0.00853853 6.16678e-19)
(0.00432633 0.00744851 2.23961e-19)
(0.000811556 -2.17499e-06 -1.37124e-18)
(0.000757014 4.99593e-05 0)
(0.000217125 6.37165e-05 1.27746e-19)
(5.45079e-05 1.85192e-05 8.72278e-20)
(8.18326e-05 4.95699e-05 6.8035e-19)
(0.000110499 4.69338e-05 -3.41833e-19)
(0.000105933 1.0839e-05 0)
(5.28869e-05 6.58917e-06 8.1875e-20)
(0.000204873 0.000141365 0)
(0.000169292 5.22963e-05 -5.24498e-20)
(0.000338523 0.000228495 -5.09476e-21)
(5.91586e-05 4.69236e-05 -4.3787e-19)
(9.52964e-05 3.24927e-05 -8.52889e-20)
(9.39072e-05 6.71129e-05 1.31257e-21)
(0.000250092 0.000370779 -6.66455e-19)
(0.000114304 0.0010313 0)
(4.47844e-05 5.64527e-05 3.43229e-19)
(0.00020765 0.00177112 0)
(0.000206702 0.000258535 7.04968e-19)
(4.28212e-05 -4.85532e-06 1.11468e-19)
(0.000472768 0.000168179 -1.7238e-19)
(0.000749614 2.79599e-05 -1.92513e-18)
(4.72111e-05 -6.02872e-07 4.16584e-24)
(0.000153731 3.26156e-05 2.24694e-19)
(0.000241323 0.000102314 -8.99752e-20)
(0.0008787 0.000710311 3.35084e-19)
(0.00072646 0.0016246 -9.23136e-21)
(0.00038091 0.00142775 -9.40005e-21)
(0.001018 0.00055569 0)
(0.000109924 -1.19164e-05 1.11929e-18)
(0.000122058 2.31204e-05 -4.43369e-20)
(0.000435727 -0.000276209 -1.13613e-18)
(0.000804312 3.08631e-05 0)
(0.000184527 1.6522e-05 3.63462e-19)
(0.000300069 0.00132844 0)
(0.00105084 0.000761336 -7.30524e-20)
(0.000822657 3.81829e-05 -1.86296e-19)
(8.55093e-05 -1.92032e-05 -3.00138e-19)
(0.000813849 0.000318482 -2.08151e-20)
(6.71439e-05 -2.17882e-05 -5.99814e-19)
(0.000226072 0.000181575 8.64259e-20)
(0.000227319 0.000312036 -3.45161e-19)
(0.000874576 0.000241601 0)
(0.000802432 4.72205e-05 0)
(0.000260183 0.000146853 1.76927e-19)
(0.000234783 1.37064e-05 4.36131e-24)
(0.000184552 0.000211431 0)
(0.000284219 0.000653385 -5.55932e-21)
(0.000336502 1.14981e-05 0)
(0.000351928 0.000601371 0)
(0.000112564 8.85666e-05 -1.34735e-21)
(0.000810303 1.43275e-05 -9.34171e-19)
(0.000811099 1.15973e-05 7.77224e-19)
(0.000132329 6.47912e-05 -1.49927e-19)
(0.000945166 0.000153297 8.5116e-20)
(0.000828386 4.66909e-05 3.32926e-19)
(0.000805933 1.9838e-05 -2.94425e-19)
(0.00100178 0.000405866 0)
(0.000430598 0.000125994 6.24742e-19)
(0.000887204 0.000316786 2.09242e-20)
(0.000562421 0.000161998 0)
(0.000272001 0.000444766 4.0981e-19)
(0.000259848 0.000223404 -8.44548e-20)
(0.00109283 0.000375703 -7.82287e-19)
(0.000607168 0.000111063 -1.79385e-19)
(0.000796522 7.52223e-05 -7.46072e-21)
(0.000829633 2.85984e-05 9.36397e-20)
(9.56886e-05 -8.95798e-05 -1.98234e-18)
(0.000730025 0.000382023 2.19335e-19)
(0.000651867 6.23987e-05 2.30712e-20)
(0.000695985 0.000277199 1.58078e-23)
(0.000719441 0.000454788 -4.09754e-19)
(0.000836761 3.84605e-05 9.06853e-20)
(7.49816e-05 8.59231e-05 0)
(0.000646043 0.000416318 -4.65925e-20)
(0.000184838 0.0001042 0)
(0.000371205 0.000503443 -2.64941e-19)
(0.000309314 0.000175154 0)
(0.000664757 0.000202549 3.55409e-19)
(0.00063813 0.000263321 -4.37467e-20)
(8.2812e-05 0.00010815 6.19456e-19)
(0.000872787 9.54726e-05 -1.63123e-18)
(6.20498e-05 2.52018e-05 2.57319e-19)
(0.000873101 5.53761e-05 -1.66315e-18)
(0.000827762 7.99743e-05 1.61721e-19)
(0.00080185 2.43683e-05 1.91231e-18)
(0.000799531 2.33627e-05 -1.30882e-19)
(0.000720877 7.40624e-05 0)
(0.000806707 3.14218e-05 8.82915e-19)
(0.000941324 0.000230156 -4.27328e-19)
(0.000757066 8.44177e-05 -4.83867e-19)
(0.000770396 0.000226926 -8.81686e-20)
(0.000229933 -0.000133413 -2.08039e-18)
(0.000728734 8.59188e-05 8.86762e-19)
(0.000635944 0.000596757 0)
(0.000114792 -0.000106863 0)
(0.00119834 0.000469253 4.97348e-19)
(0.000710654 -7.58773e-05 -3.23434e-18)
(0.00132028 0.000430907 5.75897e-19)
(0.0012357 0.00071868 -6.39027e-20)
(0.000797254 3.88431e-05 -2.1145e-19)
(0.000824248 6.98939e-05 -1.42428e-18)
(0.000812714 1.75798e-05 1.55946e-18)
(0.000812377 2.96443e-05 9.63531e-20)
(0.000664441 0.000347599 -4.4061e-20)
(0.000104444 0.000132163 6.17038e-24)
(0.000731012 -5.44965e-05 2.65243e-19)
(0.000234178 -0.000226889 -7.34822e-19)
(0.000609654 0.000189601 0)
(0.000690482 3.20116e-05 9.90942e-20)
(0.000668699 1.02022e-05 -3.81016e-19)
(0.000382049 0.00017674 3.93542e-20)
(0.000793029 0.000499641 -1.65548e-19)
(0.000152559 8.35122e-05 2.74014e-25)
(0.000805128 0.000401298 0)
(0.000966985 0.000321721 4.15984e-20)
(0.000737996 -8.83756e-05 -6.16628e-19)
(0.000341729 0.000113052 4.98015e-19)
(0.00089766 0.000420629 0)
(5.30603e-05 3.46178e-05 1.33777e-19)
(0.000473198 0.000271953 2.14047e-19)
(0.000465956 -0.000119113 -7.09636e-19)
(0.00016373 -0.00014322 -1.05956e-18)
(0.000815795 2.13241e-05 -4.76613e-19)
(0.000793415 -0.000108569 -1.93866e-19)
(0.000560278 0.000724262 -1.17488e-18)
(0.000834966 4.52611e-05 -6.70808e-20)
(0.000700305 -2.9886e-05 1.26118e-18)
(0.000680588 9.8979e-05 2.27903e-20)
(0.0005188 0.000215419 -1.65759e-19)
(3.78239e-05 -2.40316e-05 -8.76261e-20)
(0.000183886 -3.14936e-05 2.40728e-18)
(2.5078e-05 9.19878e-07 -1.94915e-19)
(0.000804888 0.000100877 3.62356e-19)
(0.000644034 0.000138667 0)
(0.000197677 -6.47731e-05 -1.04857e-18)
(0.000128167 -8.34935e-06 3.13056e-19)
(0.000122927 -3.2567e-05 3.63696e-24)
(0.000786397 0.000111252 -3.1924e-19)
(0.000158078 -5.81895e-06 0)
(0.000574553 0.000243698 0)
(0.000111163 0.000336254 -3.63007e-19)
(0.000848822 9.85764e-05 2.11026e-18)
(2.04419e-05 1.52739e-06 0)
(0.000863152 4.79823e-05 0)
(5.03142e-05 -2.65691e-05 0)
(0.000812176 3.58409e-05 -4.46636e-21)
(0.000798343 -5.90507e-05 0)
(0.00425881 0.00740566 8.07074e-20)
(0.00436236 0.00748513 1.43872e-19)
(0.000842297 2.85241e-06 0)
(0.000768264 -5.58909e-05 8.12672e-19)
(0.000153631 0.000132203 1.49275e-19)
(0.00084355 7.4456e-05 8.01258e-19)
(0.00013287 0.000108769 2.34505e-20)
(0.000764738 -3.76977e-05 6.26133e-19)
(3.8484e-05 1.1326e-05 0)
(3.37881e-05 -1.57614e-05 -4.48702e-20)
(0.000880124 5.11543e-05 -4.85749e-19)
(4.12201e-05 -3.4792e-05 -6.70085e-19)
(0.000744158 0.000118845 -4.23462e-20)
(0.000167918 0.000169701 -1.88182e-19)
(0.000811153 1.89701e-05 0)
(0.00468144 0.00815306 8.95744e-22)
(0.000168573 0.000784795 3.33753e-19)
(0.000130531 -5.07711e-05 -9.14965e-19)
(6.98815e-05 -3.51752e-05 -1.1693e-18)
(0.000711541 1.67334e-05 1.89928e-20)
(0.000574836 0.000412836 0)
(0.000408344 0.000437983 -2.5644e-19)
(0.000100911 -5.503e-05 1.1842e-18)
(0.000668933 1.99176e-06 7.65614e-20)
(4.63493e-05 2.47458e-06 4.07279e-19)
(0.000669189 -5.90945e-05 1.1723e-18)
(0.000807496 3.00371e-05 -5.93718e-19)
(8.00808e-05 -5.53997e-05 1.70993e-18)
(0.000839685 -7.30975e-06 -4.52245e-24)
(0.000687758 8.65816e-06 -3.76722e-20)
(0.000858004 6.22065e-05 0)
(0.00082275 3.23561e-05 0)
(0.00592091 0.00723775 2.59171e-19)
(2.62841e-05 -6.2178e-07 -1.19622e-19)
(0.000156411 -8.63763e-05 7.73268e-19)
(0.000712302 0.000121661 -6.96816e-19)
(3.00493e-05 -5.11295e-07 2.01565e-19)
(0.000588765 -2.84289e-05 -7.24216e-19)
(0.000729321 3.19257e-05 1.55892e-18)
(0.00069282 0.000157003 -3.55615e-19)
(0.000806325 -1.48354e-05 3.55346e-19)
(8.88545e-05 -3.07428e-05 1.11659e-18)
(0.000793992 9.20366e-06 -3.19749e-19)
(0.000857184 4.64019e-05 0)
(0.000531548 0.000303 4.2121e-20)
(0.000843623 4.70832e-05 -9.35885e-19)
(2.64594e-05 1.01007e-06 9.11444e-19)
(0.000839111 4.46263e-05 9.55587e-19)
(0.000846032 -8.98678e-06 -9.59203e-19)
(0.000723111 2.79243e-06 -5.69513e-19)
(0.000496284 -5.80717e-05 -5.25926e-19)
(0.00432912 0.00745173 2.47976e-19)
(0.00422428 0.00753013 -2.78821e-19)
(0.00422203 0.00758766 2.66795e-19)
(0.0042551 0.00741027 1.97932e-19)
(0.000846021 -1.17035e-05 1.44248e-19)
(0.00447567 0.00751129 0)
(0.00440306 0.00751631 -3.86635e-19)
(3.9502e-05 -2.14769e-07 -9.98424e-19)
(0.00417097 0.00747035 -6.33692e-20)
(0.00414666 0.00743351 -2.21557e-19)
(0.0060292 0.010606 0)
(0.00654024 0.0111881 3.70991e-20)
(0.00600898 0.0105758 0)
(0.00655595 0.0112111 1.3066e-19)
(0.00599605 0.0106001 2.69711e-19)
(0.00659201 0.0112271 1.24698e-20)
(0.00593456 0.0106133 -7.76739e-19)
(0.00662221 0.0111462 8.18146e-21)
(0.0039024 0.00920318 -1.90942e-19)
(0.00418792 0.00748979 3.85682e-21)
(0.00423899 0.00755318 7.93528e-20)
(0.00415105 0.0074355 4.12105e-20)
(0.000858318 0.000183873 4.46981e-20)
(1.47691e-05 2.10406e-06 0)
(0.000671649 -0.000142753 0)
(0.000696573 3.99036e-05 0)
(0.00243877 0.0011164 4.23331e-21)
(0.000744302 -2.93709e-05 1.72692e-19)
(4.48551e-05 7.14966e-06 4.5428e-20)
(1.63976e-05 -3.17692e-05 1.65334e-18)
(0.00084051 2.03074e-05 0)
(3.09947e-05 1.46397e-05 -1.91822e-19)
(0.000142999 0.000229094 0)
(2.64087e-05 -1.24776e-06 0)
(2.18447e-05 -1.81709e-06 0)
(0.000805095 0.000127831 1.13564e-20)
(0.0008095 -9.56145e-06 1.77652e-19)
(3.38953e-05 0.000296862 -1.86065e-23)
(0.000160127 0.000277121 -1.84274e-18)
(0.000594391 0.000334876 -8.57392e-20)
(0.000892572 0.000124046 6.00158e-19)
(0.000699236 -0.00032486 6.7291e-19)
(0.000346729 0.00111143 0)
(0.000457275 0.000568492 2.71628e-18)
(9.3924e-05 0.000152173 -1.80361e-18)
(3.18442e-05 3.71337e-07 0)
(0.000816676 -4.1633e-05 3.60895e-20)
(1.9143e-05 4.09198e-05 1.6453e-18)
(0.00089951 2.72985e-05 2.7141e-19)
(2.46272e-05 -0.000101258 3.78693e-18)
(0.000928063 3.9551e-05 -2.6921e-19)
(0.00138655 0.000144566 7.47867e-19)
(4.16717e-05 -1.19392e-05 8.26132e-20)
(4.23278e-05 6.03179e-06 -8.59413e-19)
(4.95009e-05 0.000151027 0)
(0.000895834 7.72806e-05 5.97862e-19)
(0.000488293 0.0003695 2.37247e-19)
(0.000735345 1.7704e-05 -3.89038e-20)
(0.000762448 -1.14566e-05 2.56804e-19)
(0.000726916 -0.000214867 0)
(0.00632059 0.0108967 -1.68134e-19)
(0.00637923 0.0109737 4.05807e-19)
(0.00616005 0.010731 -6.184e-19)
(0.00650056 0.0111325 -8.10205e-20)
(3.83938e-05 0.000123576 8.00922e-19)
(0.000901229 5.79809e-05 1.52333e-22)
(0.00641062 0.0110063 -3.86462e-19)
(0.0062812 0.0108465 5.48247e-19)
(0.00607982 0.010673 -4.16801e-19)
(0.00652165 0.0111644 -6.81563e-20)
(8.50855e-05 0.000535127 -2.01937e-20)
(0.000134125 -0.000198783 -7.93033e-19)
(0.000730618 -1.49097e-05 -7.59991e-19)
(0.000715232 0.000220956 0)
(0.000795258 1.72692e-06 0)
(0.000184116 0.00039346 3.36443e-19)
(0.000595263 0.000535781 -5.41776e-19)
(1.58317e-05 -2.49623e-06 1.7849e-19)
(0.000206392 0.000464925 -7.38712e-19)
(0.00100072 0.000972498 -1.12765e-19)
(0.000731562 0.000168975 0)
(0.000778909 0.000175658 1.31092e-19)
(0.0063613 0.00587343 1.13072e-18)
(0.000733074 0.00113451 8.27294e-20)
(4.25323e-05 4.21069e-05 -7.45074e-20)
(0.000815502 3.21203e-05 0)
(0.00087524 2.48016e-05 -3.5712e-20)
(4.05398e-05 4.94291e-06 -1.96771e-19)
(3.4906e-05 6.39473e-06 1.93072e-19)
(0.000826092 2.3204e-05 5.36115e-19)
(0.000962558 0.000104468 6.58875e-19)
(0.000630553 3.6519e-05 0)
(0.000219601 -0.000314693 -3.9726e-19)
(0.000902476 0.000149539 3.89832e-19)
(2.79662e-05 -7.56323e-05 2.03225e-19)
(0.001437 0.00039945 -2.58323e-18)
(0.000661922 -2.20198e-06 0)
(0.000781772 0.000144141 3.75681e-19)
(9.20308e-05 0.000404476 0)
(0.00118258 0.00816902 4.62075e-19)
(0.000474594 0.00050469 -1.22477e-18)
(0.000543907 0.000983118 -1.83831e-19)
(0.000869812 2.25732e-05 -1.45886e-19)
(1.65165e-05 2.88596e-05 0)
(0.000923888 7.49758e-05 6.12074e-19)
(0.00410837 0.00739736 8.14336e-20)
(0.00417255 0.00747525 4.73377e-20)
(0.00449914 0.0075141 4.54058e-19)
(0.00444452 0.007541 -3.27889e-19)
(0.00647498 0.0111079 8.11003e-20)
(0.00391445 0.00714686 -9.47631e-22)
(0.0055087 0.00779463 -5.64697e-19)
(0.0040977 0.00737284 5.21284e-21)
(0.00518826 0.00785507 5.11615e-19)
(0.00408014 0.00734226 -4.86697e-20)
(0.00495292 0.00771403 0)
(0.00408731 0.0073675 -8.55719e-20)
(0.00474164 0.00758614 4.92523e-19)
(0.00409994 0.00737742 8.75016e-20)
(0.00457418 0.00752556 0)
(0.00428273 0.00741905 1.3978e-19)
(0.00424012 0.00759922 5.80301e-19)
(0.00446713 0.00752615 -5.52689e-19)
(0.0043872 0.00750398 3.71313e-19)
(0.00422943 0.00752633 3.22828e-19)
(0.00643057 0.0110417 -4.96695e-21)
(0.00411957 0.00740284 3.11645e-20)
(0.00645752 0.011072 0)
(2.82739e-05 7.87398e-06 -1.89958e-19)
(0.00199029 0.00653999 2.28498e-19)
(0.000844345 -2.3283e-05 1.09987e-19)
(0.000857622 1.61406e-05 0)
(2.914e-06 2.8086e-06 -3.99319e-19)
(4.11533e-05 -0.000182912 6.91938e-19)
(2.47997e-05 6.22169e-05 2.09003e-18)
(0.000814639 0.000180837 -9.01097e-20)
(0.000793004 1.18269e-05 7.0685e-19)
(3.21204e-06 -3.11428e-06 3.10156e-19)
(2.46673e-05 -4.05831e-05 -1.84654e-18)
(0.000754218 2.74097e-05 1.63257e-19)
(0.000856136 0.000127964 -3.07611e-20)
(0.000792705 -9.47435e-06 1.4681e-19)
(0.000401574 0.000668757 0)
(9.40657e-05 -0.00015286 1.15141e-18)
(0.000849769 1.5317e-05 1.52386e-19)
(2.23373e-05 2.71185e-05 0)
(0.000107449 0.000566802 -6.31473e-19)
(0.000604585 0.000602195 1.31848e-18)
(0.000334046 0.000734723 0)
(0.000793709 -1.77378e-05 0)
(0.000792903 1.05834e-05 1.16862e-18)
(2.14071e-05 5.31889e-05 -3.5167e-18)
(1.99232e-05 9.45819e-06 3.73816e-19)
(0.000114784 0.000153001 0)
(5.68794e-05 -4.35923e-05 0)
(6.6869e-05 0.000119142 2.011e-19)
(0.000919445 0.000176984 3.5063e-19)
(0.000798155 1.2176e-05 -1.38829e-18)
(2.53697e-05 3.73797e-05 0)
(0.000531096 3.21022e-05 -6.03013e-20)
(0.000798678 3.93874e-05 -1.5644e-19)
(0.000828687 2.36118e-05 1.04055e-18)
(0.000257031 0.000545528 6.32506e-19)
(0.000852168 0.000151929 0)
(2.66565e-05 -2.8907e-05 5.38961e-19)
(3.96207e-06 -1.10775e-05 -3.20139e-19)
(0.00104205 2.34687e-05 0)
(0.00103284 0.0022373 0)
(0.00100054 -2.53777e-05 0)
(0.000989166 0.000199296 4.27426e-19)
(0.000813032 -2.38701e-05 -2.81669e-19)
(0.000910767 0.000116513 -6.8517e-19)
(0.000794195 4.36426e-06 0)
(4.37276e-05 7.51744e-05 -1.71653e-19)
(0.000173409 0.000330528 1.08163e-18)
(0.000793908 2.76687e-05 7.26585e-24)
(0.00107308 0.000199566 -6.69009e-19)
(0.00108756 0.000119424 0)
(3.36012e-06 1.00651e-05 2.51161e-19)
(2.35217e-05 -1.90657e-05 -1.94416e-19)
(0.000628509 3.26585e-05 6.88917e-21)
(3.36284e-05 -0.000100833 0)
(0.00103782 0.000248695 9.5032e-19)
(0.00502795 0.0097484 -2.83248e-19)
(0.00311899 0.00962253 1.27236e-18)
(7.06998e-05 -0.000117215 -1.91406e-19)
(7.49112e-05 -8.07414e-05 1.86058e-18)
(0.00119112 0.000229947 1.67038e-19)
(0.00133633 0.00107298 2.34193e-19)
(0.000819523 2.40625e-06 -7.33148e-19)
(0.000212746 0.000948732 -2.38873e-19)
(0.000795287 0.000900405 -2.18678e-19)
(0.000796173 -5.46997e-06 0)
(9.33732e-05 0.000659558 0)
(9.7363e-05 0.000286586 -4.48799e-23)
(0.000732952 -3.0076e-05 -1.71226e-23)
(0.000812527 4.43453e-05 1.51027e-19)
(0.00262171 0.00206207 -1.23196e-18)
(0.00175688 0.00924374 -1.17175e-19)
(0.000828634 3.33543e-05 4.85951e-19)
(0.00633828 0.00403822 -1.7574e-19)
(0.00671994 0.0115566 -1.36756e-20)
(0.00473272 0.00784343 4.94045e-21)
(0.000799634 2.10914e-05 -2.17469e-18)
(0.00082647 2.61199e-05 -1.75924e-24)
(1.33231e-05 -1.05231e-05 -3.48205e-19)
(4.79033e-05 9.67812e-05 -3.49458e-19)
(7.52381e-05 0.000280208 8.75961e-19)
(1.40659e-05 1.91465e-05 4.90666e-19)
(9.02114e-05 0.000238304 3.69942e-19)
(0.000821149 3.33216e-05 0)
(0.00534777 0.00949298 1.94795e-20)
(0.00154506 0.000609929 -2.61416e-20)
(0.00082068 2.61189e-05 3.55889e-19)
(5.43469e-05 -9.17582e-05 0)
(0.0018426 0.000748794 5.46233e-19)
(1.23496e-05 9.93481e-06 -2.70298e-19)
(3.76405e-05 3.23821e-05 9.72337e-20)
(0.00131242 0.0013781 6.36615e-19)
(0.000741677 3.91766e-05 1.83222e-19)
(9.64625e-06 -2.79818e-06 -1.70297e-19)
(0.00206149 0.00154642 -1.0566e-18)
(0.000127244 0.000186158 -8.19132e-19)
(0.00392096 0.00848402 -1.0912e-18)
(8.98228e-06 2.48421e-06 8.81893e-20)
(0.000181295 -0.000234947 -1.25021e-18)
(6.17717e-05 -6.02903e-05 4.05873e-20)
(0.00152828 0.000967254 0)
(0.00102714 0.000141588 -4.18585e-22)
(0.000451421 0.000853668 -4.02384e-20)
(0.000801225 2.24634e-05 -2.3419e-19)
(8.71513e-05 0.000192545 7.364e-19)
(4.59401e-05 -6.9315e-05 4.0425e-19)
(2.10128e-05 1.79121e-05 -9.47605e-20)
(3.60991e-05 0.00010102 -3.20453e-19)
(0.00019905 -0.000332131 -5.40878e-19)
(0.00324555 0.00344302 2.81109e-21)
)
;

boundaryField
{
    back
    {
        type            empty;
    }
    ingreso
    {
        type            fixedValue;
        value           uniform (0.0008 0 0);
    }
    salida
    {
        type            zeroGradient;
    }
    front
    {
        type            empty;
    }
    defaultFaces
    {
        type            noSlip;
    }
}


// ************************************************************************* //
