/*--------------------------------*- C++ -*----------------------------------*\
  =========                 |
  \\      /  F ield         | OpenFOAM: The Open Source CFD Toolbox
   \\    /   O peration     | Website:  https://openfoam.org
    \\  /    A nd           | Version:  8
     \\/     M anipulation  |
\*---------------------------------------------------------------------------*/
FoamFile
{
    version     2.0;
    format      ascii;
    class       surfaceScalarField;
    location    "6.2";
    object      phi;
}
// * * * * * * * * * * * * * * * * * * * * * * * * * * * * * * * * * * * * * //

dimensions      [0 3 -1 0 0 0 0];

internalField   nonuniform List<scalar> 
9048
(
7.00496e-09
-6.44417e-09
-3.31408e-09
2.75329e-09
-1.54919e-09
-1.36553e-09
1.73078e-09
1.18394e-09
8.65633e-09
-2.50205e-09
-6.59618e-09
4.4191e-10
-2.29946e-09
5.17022e-09
1.20369e-09
-4.07446e-09
-4.67042e-09
-3.34439e-09
1.90597e-09
6.10884e-09
3.09693e-09
-2.18405e-09
6.3252e-09
-7.23808e-09
-2.54027e-09
1.93316e-09
1.96282e-09
-1.3557e-09
3.26188e-10
-2.81093e-10
-6.04271e-11
1.53317e-11
5.23352e-09
-3.83621e-09
3.39062e-09
-4.78793e-09
7.62989e-09
-3.62408e-09
-7.06769e-09
3.06188e-09
1.45243e-09
-5.57698e-09
4.08875e-09
3.57971e-11
5.73154e-09
-4.91457e-09
-2.545e-09
1.72804e-09
-5.73824e-09
2.10999e-09
5.41282e-09
-1.78458e-09
4.82136e-09
4.30564e-09
-2.66027e-09
-6.46673e-09
6.71612e-09
-6.10897e-09
-2.85807e-09
2.25092e-09
-6.86447e-09
5.21148e-09
2.14661e-09
-4.93616e-10
-8.51034e-09
6.47469e-09
2.61304e-09
-5.77383e-10
8.40394e-09
-6.58737e-09
-3.00125e-09
1.18467e-09
7.73737e-09
-6.83807e-09
-3.30373e-09
2.40443e-09
6.26553e-09
-5.53588e-09
-2.71009e-09
1.98044e-09
-6.18921e-09
5.65921e-09
2.37956e-09
-1.84956e-09
-5.50251e-09
5.09633e-09
2.18946e-09
-1.78328e-09
5.62067e-09
-5.0255e-09
-2.30836e-09
1.71319e-09
6.40258e-09
-5.9447e-09
-3.06563e-09
2.60775e-09
-5.90907e-09
5.55405e-09
2.47126e-09
-2.11624e-09
-7.33267e-09
7.19045e-09
3.26687e-09
-3.12466e-09
5.45782e-09
-5.20456e-09
-2.55732e-09
2.30407e-09
5.54292e-09
-5.29174e-09
-2.66125e-09
2.41007e-09
5.67249e-09
-5.41468e-09
-2.72722e-09
2.46941e-09
6.76048e-09
-5.3646e-09
-2.36849e-09
9.72619e-10
7.57826e-09
-5.99337e-09
-2.79527e-09
1.21038e-09
5.87543e-09
-5.47987e-09
-2.73405e-09
2.33848e-09
-5.57849e-09
5.21897e-09
2.38448e-09
-2.02496e-09
6.58102e-09
-6.02666e-09
-2.98895e-09
2.43459e-09
7.50686e-09
-7.09276e-09
-3.71215e-09
3.29805e-09
7.20344e-09
-5.70334e-09
-2.57087e-09
1.07077e-09
6.91371e-09
-5.4773e-09
-2.46746e-09
1.03105e-09
7.03649e-09
-5.57389e-09
-2.51014e-09
1.04755e-09
-6.24027e-09
6.03677e-09
1.98653e-09
-1.78303e-09
-5.36084e-09
2.37776e-09
5.08605e-09
-2.10297e-09
-4.11197e-09
3.65535e-09
-3.47183e-09
3.92844e-09
7.85666e-09
-8.06979e-09
2.81288e-09
-2.59975e-09
3.00236e-09
-3.38199e-09
5.32097e-09
-4.94133e-09
2.77684e-09
-3.17183e-09
4.87691e-09
-4.48193e-09
2.71858e-09
-3.11499e-09
4.7927e-09
-4.3963e-09
-3.87765e-09
-4.33327e-09
4.09895e-09
3.24754e-09
-3.76356e-09
5.65684e-09
-5.14081e-09
2.76576e-09
-3.15223e-09
4.76159e-09
-4.37511e-09
3.06076e-09
-3.43166e-09
5.33256e-09
-4.96166e-09
-3.25864e-09
2.78681e-09
5.37853e-09
-4.9067e-09
-1.65424e-09
1.56804e-09
-5.51552e-09
5.60172e-09
1.51231e-09
-1.78945e-09
-5.32695e-09
5.60409e-09
-8.25728e-09
3.05545e-09
-2.09702e-09
7.29884e-09
3.41288e-09
-3.35342e-09
-4.58385e-09
4.52439e-09
-2.83072e-09
3.28703e-09
2.80456e-09
-3.26087e-09
3.64983e-09
3.93043e-09
-3.60569e-09
-3.97458e-09
5.15379e-09
-6.5498e-09
2.7769e-10
1.11832e-09
-3.45405e-10
3.30267e-10
8.56239e-13
1.42817e-11
-3.98631e-09
-4.48335e-09
3.99813e-09
4.47153e-09
3.99266e-09
-5.19078e-09
-5.77212e-09
6.97024e-09
4.78983e-09
3.39967e-09
-4.59402e-09
-3.59547e-09
3.96311e-09
3.85708e-09
-4.13721e-09
-3.68299e-09
3.11786e-09
-3.95882e-09
-4.53758e-09
5.37854e-09
4.69735e-09
4.63624e-09
-4.92963e-09
-4.40396e-09
-2.31155e-09
2.34737e-09
3.60854e-09
-3.64436e-09
-4.70686e-09
-4.69113e-09
3.76748e-09
5.6305e-09
5.65279e-09
2.45208e-09
-2.43433e-09
-5.67054e-09
4.88848e-09
4.9468e-09
-4.32152e-09
-5.51377e-09
3.51741e-09
-4.62163e-09
-5.0473e-09
6.15152e-09
-2.34413e-09
2.87109e-09
4.29439e-09
-2.20468e-09
2.2787e-09
2.48571e-09
-2.55972e-09
1.1422e-09
1.79788e-09
-1.60032e-09
-1.33977e-09
-1.00727e-09
6.16255e-09
2.78348e-09
-7.93877e-09
-4.18151e-09
-3.90447e-09
3.22322e-09
4.86276e-09
4.12978e-09
3.85925e-09
-4.23892e-09
-3.75011e-09
5.12274e-09
4.82673e-09
-5.26519e-09
-4.68428e-09
2.55402e-09
-1.15608e-09
7.35096e-10
-2.13303e-09
-4.96648e-09
4.25787e-09
4.36396e-09
4.67844e-09
-4.60454e-09
2.4998e-09
-2.5737e-09
4.18935e-09
-4.12859e-09
2.23136e-09
-2.29212e-09
3.76128e-09
6.20152e-09
-4.29445e-09
-5.66835e-09
2.10298e-09
6.00489e-09
-2.70525e-09
-5.40262e-09
6.82623e-09
-4.73412e-09
5.47187e-09
-7.56398e-09
-5.62717e-09
-3.88164e-09
4.59313e-09
4.91568e-09
4.14849e-09
-4.61326e-09
-4.8619e-09
-3.83863e-09
4.74781e-09
3.95273e-09
7.53102e-09
-4.86822e-09
-4.14926e-09
1.48647e-09
-5.09133e-09
3.54994e-09
-4.4854e-09
6.02679e-09
-4.66124e-09
-3.17737e-09
3.74677e-09
4.09184e-09
-4.8503e-09
-3.3109e-09
3.90721e-09
4.254e-09
-4.74131e-09
-3.23415e-09
3.81462e-09
4.16084e-09
-4.57287e-09
-3.11616e-09
3.67359e-09
4.01544e-09
-1.2261e-11
-6.95613e-12
-4.56407e-09
-1.92421e-10
-2.74088e-10
5.03058e-09
3.49441e-09
-3.59973e-09
1.88259e-09
-1.77727e-09
4.01028e-09
1.89286e-09
-7.85119e-10
-5.11802e-09
-2.93332e-10
-7.25033e-09
6.68318e-09
8.60485e-10
-4.56249e-09
4.29183e-09
4.33067e-09
-4.06001e-09
-1.25982e-09
6.23745e-09
1.76169e-10
-4.51102e-09
4.89646e-09
4.10132e-09
-4.48676e-09
-5.43348e-09
3.78143e-09
-4.65413e-09
6.30617e-09
-4.40944e-09
3.1379e-09
-4.05535e-09
5.32689e-09
3.97531e-09
8.4773e-09
-6.91655e-10
-1.1761e-08
-6.88338e-09
4.78087e-09
-5.09677e-09
7.19929e-09
6.97985e-10
3.40683e-09
-1.5508e-09
-3.56183e-10
2.35946e-11
3.33011e-10
-4.22896e-13
-4.2135e-09
-4.33636e-09
3.8857e-09
4.66416e-09
-4.72606e-09
-1.52955e-09
1.90097e-09
4.35463e-09
-4.05556e-09
6.04013e-09
2.90392e-09
-2.7539e-09
4.02589e-09
-4.62541e-09
4.99497e-09
5.44876e-09
-5.2102e-09
3.89014e-10
-3.48045e-10
-5.39867e-12
-3.55703e-11
-2.80761e-09
2.37402e-09
8.19901e-10
-3.86315e-10
5.45979e-09
5.38442e-09
-4.3933e-09
-6.45091e-09
2.73772e-09
-3.21908e-09
-1.16438e-09
1.64574e-09
2.66215e-09
-2.42317e-09
4.63188e-09
-4.87086e-09
-2.9891e-09
3.18086e-09
3.93514e-09
-4.1269e-09
5.69625e-12
-3.70272e-10
8.39283e-12
-4.21581e-09
8.14759e-12
4.47268e-09
-2.65013e-10
5.98985e-09
-4.19045e-09
4.46124e-09
-6.26063e-09
-5.18677e-09
5.22111e-09
2.16996e-09
-2.20431e-09
5.61117e-09
-4.32067e-09
4.97464e-09
-6.26513e-09
-4.42565e-09
1.24312e-09
-3.82125e-10
3.56466e-09
-5.0131e-09
4.73611e-09
-5.01541e-09
5.2924e-09
-6.06109e-09
4.28957e-09
-5.17537e-09
6.94689e-09
6.46233e-09
-5.86893e-09
6.5677e-09
-7.1611e-09
-5.35611e-09
4.92349e-09
-5.26254e-09
5.69515e-09
-6.73117e-09
4.7628e-09
-5.12097e-09
7.08934e-09
5.56395e-09
-4.53401e-09
5.7244e-09
-6.75434e-09
5.04736e-09
-4.70031e-09
4.80868e-09
-5.15573e-09
-5.4767e-09
4.82629e-09
-5.25037e-09
5.90077e-09
5.14173e-09
-4.61983e-09
4.89296e-09
-5.41486e-09
5.93269e-09
-4.7354e-09
5.92954e-09
-7.12683e-09
4.9776e-09
-4.20497e-09
5.41949e-09
-6.19212e-09
4.86176e-09
-4.50153e-09
4.47823e-09
-4.83846e-09
1.57413e-09
-3.82604e-09
3.76532e-09
-1.51341e-09
6.02257e-09
-4.12505e-09
3.53621e-09
-5.43373e-09
5.39195e-09
5.36022e-09
-4.91815e-09
-5.83402e-09
-7.03847e-10
1.25011e-09
-3.28035e-09
2.73408e-09
5.57252e-09
5.37344e-09
-4.81427e-09
-6.13169e-09
-4.92694e-09
-4.93732e-09
3.98875e-09
5.87551e-09
-4.81663e-09
-4.84237e-09
3.98956e-09
5.66945e-09
-4.57585e-09
-3.36932e-09
4.52555e-09
3.41961e-09
4.29198e-09
3.52592e-09
-4.43793e-09
-3.37997e-09
5.11909e-09
4.76666e-09
-4.73429e-09
-5.15146e-09
4.98974e-09
4.66527e-09
-4.59732e-09
-5.05769e-09
5.25337e-09
5.09856e-09
-4.70493e-09
-5.647e-09
5.47816e-09
5.30371e-09
-4.92464e-09
-5.85723e-09
5.35307e-09
5.18079e-09
-4.8184e-09
-5.71546e-09
4.24464e-09
-4.67128e-09
-2.35989e-09
2.78654e-09
-5.86466e-09
4.52472e-09
-3.64096e-09
4.9809e-09
7.52449e-09
-5.43744e-10
-1.40904e-11
-6.96666e-09
-2.97448e-09
3.16319e-09
4.05485e-09
-4.24355e-09
5.7079e-09
-4.9593e-09
-9.85961e-10
2.37357e-10
3.81927e-09
1.23782e-09
-3.59171e-09
-1.46538e-09
6.64212e-09
-4.65272e-09
4.98715e-09
-6.97654e-09
-4.25147e-09
2.0797e-09
-8.76832e-10
3.0486e-09
5.74789e-09
-7.67638e-09
7.58915e-09
-5.66067e-09
-1.43528e-09
-2.28486e-09
2.45036e-09
1.26978e-09
2.56804e-09
-4.93017e-09
-2.234e-09
4.59612e-09
-4.8749e-09
4.39885e-09
-4.6972e-09
5.17325e-09
3.65247e-11
3.6651e-11
-7.31757e-11
-2.61902e-09
-3.48681e-10
2.41004e-10
2.7267e-09
-1.69927e-09
2.96556e-09
-6.96716e-09
5.70087e-09
3.03661e-10
9.10496e-11
-7.50431e-09
-4.97248e-09
8.7965e-09
3.68029e-09
-8.62315e-10
1.59347e-09
1.05403e-09
-1.78519e-09
1.26429e-09
1.27066e-09
-1.39274e-09
-8.65943e-11
9.26081e-11
-2.65067e-10
2.59053e-10
-3.78118e-09
3.31178e-09
4.62884e-09
-4.15943e-09
-3.05979e-09
-8.95207e-10
3.23455e-09
7.20447e-10
-1.93659e-09
3.35596e-09
-7.78647e-09
6.3671e-09
5.39981e-10
4.49126e-09
-4.74568e-09
-2.8557e-10
2.9839e-09
-3.3374e-09
4.11482e-09
-3.76131e-09
4.76094e-09
-1.09959e-09
-3.55461e-09
-1.0674e-10
5.32945e-09
6.70259e-10
-1.95587e-09
-4.04384e-09
2.52675e-09
-1.5429e-09
2.61577e-09
-3.59963e-09
4.96352e-09
-5.26785e-09
5.44752e-09
-5.14319e-09
-3.77568e-10
-4.82434e-11
3.99174e-10
2.66366e-11
5.56669e-09
-5.42858e-09
-4.83271e-09
4.6946e-09
-6.24937e-09
-3.94421e-09
5.00681e-09
-2.29105e-09
-5.63152e-09
4.97583e-09
2.94675e-09
-1.73766e-09
2.7519e-09
-5.92183e-09
4.90759e-09
4.07281e-09
-4.18755e-09
-4.0895e-09
4.20424e-09
1.91772e-09
-9.5831e-10
-1.85281e-09
8.93401e-10
2.10418e-09
4.02074e-09
-2.11464e-09
3.67305e-09
-5.29348e-10
-4.23869e-09
1.09499e-09
-1.418e-09
-2.53042e-09
1.2259e-09
2.72252e-09
-1.82544e-09
5.16631e-09
-4.99512e-09
-5.60796e-10
1.03734e-09
-3.01682e-09
2.84773e-09
-5.09896e-09
4.81928e-09
3.15682e-09
-3.36947e-09
-5.65201e-09
4.6484e-09
4.91392e-09
-4.02345e-09
-5.53887e-09
6.94833e-10
4.81551e-09
-5.34221e-09
-1.68137e-10
2.67181e-10
4.49499e-11
-2.01485e-10
-1.10647e-10
-2.61929e-09
-4.13092e-09
2.87402e-09
3.8762e-09
4.93469e-09
-3.35167e-09
-4.33692e-09
-2.88052e-09
1.27642e-09
-4.98498e-09
6.58909e-09
-3.2736e-09
3.26266e-09
2.40304e-09
-2.39211e-09
4.33063e-09
-3.21102e-09
-7.63182e-09
6.51221e-09
8.25111e-10
-5.46811e-10
9.85989e-10
-4.58071e-09
5.73114e-09
-6.39136e-09
5.24093e-09
-1.22296e-10
4.01159e-11
-2.65865e-10
-4.44361e-09
4.76362e-09
-5.9543e-09
5.63429e-09
-3.54345e-09
4.22824e-09
-5.61445e-09
4.92965e-09
-3.53534e-09
3.26271e-09
-4.71623e-09
4.98885e-09
3.61718e-09
-3.95374e-09
5.14301e-09
-4.80645e-09
-8.57201e-09
3.42711e-10
6.18372e-09
2.04558e-09
-3.19186e-09
-1.25982e-09
1.08318e-09
3.3685e-09
-6.01244e-10
7.84541e-10
-6.28554e-09
6.10225e-09
-2.58657e-09
-1.19581e-10
8.71235e-11
4.76464e-09
-2.53328e-09
-2.23136e-09
-1.86382e-09
9.03289e-09
-8.17633e-09
5.34342e-09
-2.84362e-09
-2.4998e-09
-1.59063e-09
-5.05388e-09
1.91845e-09
-3.32163e-09
1.47592e-09
-2.07573e-09
3.92144e-09
-8.26499e-10
2.94927e-09
-2.82662e-09
4.17009e-09
-2.28749e-09
-1.88259e-09
3.65764e-10
1.45429e-10
4.24974e-09
-2.49953e-09
-1.50858e-09
2.5901e-09
-4.83249e-09
5.93919e-09
-7.11969e-09
6.01299e-09
-2.60862e-09
2.71525e-09
3.75163e-09
-3.85826e-09
-2.4386e-10
3.08398e-10
1.36359e-10
-2.00896e-10
6.13838e-09
-6.78299e-09
1.13893e-09
-4.94319e-10
4.33858e-09
-4.28505e-09
3.1446e-09
-3.32567e-09
4.49624e-09
-4.31516e-09
-5.71332e-10
2.07511e-09
4.13942e-10
-2.75262e-09
-5.74645e-09
5.34991e-09
3.14916e-09
-5.14632e-09
5.08021e-09
5.19418e-09
-5.12807e-09
-3.84561e-09
-5.60352e-09
4.29315e-09
5.15599e-09
1.43691e-10
-1.77805e-10
3.64673e-10
-3.30559e-10
5.56855e-09
-4.58649e-09
5.72714e-09
-6.7092e-09
-4.69683e-09
-3.22952e-09
4.49976e-09
3.42658e-09
-5.32609e-09
4.81995e-09
-5.82311e-09
6.32925e-09
-4.38415e-09
4.91315e-09
-5.44143e-09
4.91244e-09
-1.08082e-09
-3.10235e-09
3.23205e-09
9.51122e-10
4.2376e-09
4.7561e-09
-3.81199e-09
-5.18171e-09
3.34895e-09
-3.70525e-09
5.01564e-09
-4.65935e-09
-2.49654e-10
-2.75856e-10
3.73263e-09
-3.20712e-09
-2.80945e-09
4.32817e-09
2.57037e-09
-4.0891e-09
-4.16666e-09
-3.9978e-10
4.42536e-09
1.4108e-10
2.2262e-09
-2.6846e-09
1.0972e-10
2.82566e-09
-4.11234e-09
-2.37333e-09
3.66001e-09
-1.00551e-08
5.06996e-09
-5.1302e-09
1.01154e-08
-4.35793e-09
-5.85113e-09
4.87938e-09
5.32969e-09
6.37186e-09
6.58953e-09
-7.52839e-09
-5.433e-09
3.47627e-09
5.28691e-09
-3.40854e-09
-5.35464e-09
-3.10212e-09
-1.17057e-09
3.76131e-09
4.23882e-09
-3.43113e-09
-4.56899e-09
-3.32153e-09
-5.09066e-09
3.43524e-09
4.97694e-09
3.53023e-09
4.77229e-09
-3.92325e-09
-4.37927e-09
4.49167e-09
5.38517e-09
-5.17885e-09
-4.69798e-09
3.91272e-09
5.41595e-09
-4.18841e-09
-5.14027e-09
-3.98166e-09
-5.83054e-09
4.44933e-09
5.36287e-09
-3.17314e-09
-3.99143e-09
3.78821e-09
3.37636e-09
3.53888e-09
5.16576e-09
-3.54791e-09
-5.15674e-09
-3.24654e-09
-4.08458e-09
3.87544e-09
3.45568e-09
-3.0106e-09
-4.20583e-09
2.46533e-09
4.75111e-09
-4.40935e-09
-6.20987e-09
4.95532e-09
5.6639e-09
4.82736e-09
-4.20358e-09
-5.94102e-09
5.31724e-09
-2.44797e-09
-1.41309e-09
2.61559e-09
1.24547e-09
-2.06652e-10
2.11028e-09
-2.24664e-09
3.43016e-10
3.9345e-09
-3.15971e-09
7.1066e-09
-7.8814e-09
-4.92895e-09
-3.91146e-09
5.08188e-09
3.75853e-09
3.38446e-09
-3.47765e-09
5.4015e-09
-5.3083e-09
3.45322e-09
-3.21381e-09
5.32638e-09
-5.5658e-09
-3.27037e-09
3.84893e-09
-5.93837e-09
5.35981e-09
-4.45946e-09
3.96312e-09
-4.94294e-09
5.43928e-09
1.35515e-09
-2.64781e-09
2.54277e-09
-6.56154e-09
6.25639e-09
-7.06024e-09
7.36539e-09
-4.46955e-09
-1.9871e-09
4.63121e-09
7.00659e-11
1.37703e-10
-1.39301e-10
-6.84687e-11
5.97375e-09
-5.60927e-09
6.78578e-09
-7.15026e-09
-5.20143e-09
3.67778e-09
-4.81067e-09
6.33432e-09
7.67483e-09
4.9383e-09
-6.24126e-09
3.58637e-09
-4.16096e-09
5.6219e-09
-5.04731e-09
-1.06605e-08
6.3472e-09
1.29235e-09
-5.72033e-09
-1.91922e-09
-4.74432e-09
6.03482e-09
3.7516e-09
-5.04209e-09
5.56115e-09
-6.88328e-09
5.8138e-09
4.85289e-09
-5.77147e-09
4.8313e-09
-4.21705e-09
5.34011e-09
-4.3696e-09
-4.12457e-09
5.21839e-09
-4.26697e-09
4.7107e-09
-5.76856e-09
4.59674e-09
-4.24712e-09
5.48074e-09
-4.24422e-09
-5.27381e-09
6.59157e-09
-5.29941e-09
-5.70406e-09
7.17414e-09
-5.87943e-09
4.48687e-09
-5.46346e-09
4.50682e-09
-5.71273e-09
7.26807e-09
4.51788e-09
-6.07322e-09
-5.09232e-09
6.28713e-09
-5.04042e-09
4.73615e-09
-5.411e-09
4.91245e-09
-4.66933e-09
5.82637e-09
-4.47857e-09
4.20936e-09
-4.8056e-09
4.35755e-09
-3.16894e-10
-2.19143e-09
-7.82446e-11
-5.69341e-09
7.03793e-09
-5.70245e-09
-7.39983e-09
-9.0176e-10
7.18167e-09
1.11992e-09
-4.75589e-09
-5.63237e-09
4.07104e-09
6.31722e-09
3.99756e-09
4.2314e-09
-5.24506e-09
6.96083e-10
-7.4363e-10
4.25679e-10
-3.78132e-10
5.02095e-09
2.30536e-09
-2.50589e-09
-4.82042e-09
4.43253e-09
-7.80801e-09
8.07489e-09
-4.69941e-09
4.97224e-09
-5.7728e-09
4.27683e-09
2.40035e-09
-3.12756e-09
-3.46765e-09
4.19487e-09
-2.71701e-09
6.01711e-09
-5.39411e-09
2.09401e-09
-5.38085e-09
1.75417e-09
-3.82099e-09
3.42228e-09
-7.1056e-09
-5.92216e-09
-5.33405e-09
4.58459e-09
6.67162e-09
-4.75897e-09
4.427e-09
4.81324e-09
-4.48127e-09
2.16967e-09
4.37077e-09
-2.20186e-09
-1.16855e-09
-6.40714e-10
-7.14486e-09
8.95413e-09
4.06372e-09
6.38828e-09
-4.99221e-09
3.2692e-09
-2.98406e-09
4.16195e-09
-4.44708e-09
6.60734e-09
4.56423e-10
-6.37868e-09
-6.8509e-10
-7.09057e-09
6.92784e-09
2.21689e-10
-5.89594e-11
-5.07746e-09
-5.74276e-09
5.6739e-09
-7.69406e-09
-9.69815e-10
7.24011e-09
1.42376e-09
-2.50781e-09
2.17707e-09
-6.27578e-10
2.01389e-09
6.10262e-09
5.39818e-10
-6.21767e-09
-4.12817e-09
5.82256e-09
4.52328e-09
5.66811e-09
4.78117e-09
-4.55796e-09
-5.89132e-09
-2.26623e-09
2.06463e-09
3.83228e-09
-3.63067e-09
-5.19004e-09
5.19807e-09
4.06478e-09
3.81361e-09
6.19976e-09
-4.40221e-09
2.13348e-09
7.06228e-09
-1.05393e-09
-8.14183e-09
-4.31878e-11
1.18702e-09
6.14062e-09
-4.81168e-09
3.66603e-09
-5.32921e-09
6.73962e-10
6.55406e-09
-1.89881e-09
5.32703e-09
5.88102e-09
-6.24453e-09
-5.19005e-09
-6.46521e-09
4.85658e-09
6.79867e-09
3.55623e-09
3.49989e-09
-3.39178e-09
-3.66434e-09
4.78187e-09
5.67542e-09
-4.36972e-09
-6.08757e-09
-6.47692e-09
7.15968e-09
7.09714e-09
-7.77991e-09
-6.90809e-09
2.12825e-09
4.16172e-09
6.18123e-10
-2.90019e-09
7.52909e-10
-9.1251e-10
-6.08148e-09
7.72751e-09
4.99923e-09
-6.64526e-09
4.47679e-09
6.97125e-09
-5.88134e-09
-3.30645e-09
-5.46697e-09
3.76032e-09
-3.95814e-09
-6.72562e-09
4.62267e-09
4.41657e-09
7.00698e-09
-5.49087e-09
4.48023e-09
7.24062e-09
-5.25852e-09
-3.73657e-09
-5.68869e-09
4.06915e-09
3.8217e-09
5.88991e-09
-4.73401e-09
2.63082e-09
3.29419e-09
-3.12297e-09
-2.80203e-09
-4.96694e-09
-7.39292e-09
5.62868e-09
-3.97075e-09
-5.72789e-09
4.22194e-09
3.50753e-09
5.3688e-09
-3.82897e-09
4.36856e-09
6.41267e-09
-5.21728e-09
3.42383e-09
5.59232e-09
-3.87442e-09
-5.2833e-09
-6.70303e-10
1.11508e-09
4.83852e-09
1.22661e-09
4.993e-09
7.00973e-09
-1.08125e-09
-5.75897e-09
-1.69512e-10
5.75611e-09
-1.67586e-10
-5.77314e-09
1.84612e-10
6.65226e-09
-1.23335e-10
-6.70182e-09
1.72893e-10
7.37718e-09
-1.91346e-10
-8.16492e-09
9.7909e-10
-6.30461e-09
4.13292e-09
1.53859e-09
6.33088e-10
5.25336e-09
-5.81867e-09
2.36802e-10
3.28508e-10
-6.79169e-09
6.9122e-09
-1.16509e-10
-3.99679e-12
-7.15031e-09
7.11643e-09
7.97392e-12
2.59081e-11
-6.82656e-09
6.562e-09
-1.89879e-10
4.54438e-10
-7.94195e-09
6.90154e-09
2.06733e-09
-1.02692e-09
-8.29215e-09
8.44175e-09
-2.21618e-10
7.20225e-11
-6.27549e-09
6.39769e-09
-2.17962e-10
9.57673e-11
-5.37062e-09
6.39408e-09
-3.75683e-13
-1.02308e-09
-6.02619e-09
4.96612e-09
1.47275e-09
-4.12682e-10
-6.09415e-09
4.96607e-09
-4.76516e-10
1.6046e-09
-5.49606e-09
6.54542e-09
-4.4897e-12
-1.04487e-09
-8.02062e-09
7.76398e-09
-8.46568e-11
3.41299e-10
-5.29815e-09
6.19159e-09
1.42185e-11
-9.07661e-10
-6.292e-09
6.3398e-09
-8.09538e-11
3.31522e-11
-6.41934e-09
6.5169e-09
-7.71731e-11
-2.03821e-11
-6.28822e-09
6.28129e-09
-1.27712e-10
1.34644e-10
-7.81228e-09
7.98428e-09
-1.12365e-10
-5.96411e-11
7.15853e-09
-8.65613e-09
1.62789e-11
1.48132e-09
8.66113e-09
-8.39342e-09
2.23993e-10
-4.91705e-10
-4.2247e-09
-1.69957e-09
4.4873e-09
1.43697e-09
6.13075e-09
-6.60798e-09
-1.24012e-10
5.78241e-09
1.42896e-09
-5.64333e-09
-4.53741e-09
1.01643e-09
6.20034e-09
-6.55356e-09
-4.91463e-09
-6.48792e-09
6.05138e-09
4.02291e-09
1.9709e-09
4.75354e-09
-4.18748e-09
-2.53696e-09
-1.60689e-09
-2.27636e-09
-5.05181e-09
5.46026e-09
-5.24093e-09
4.86331e-09
-5.44752e-09
5.91124e-09
-2.15892e-09
5.88924e-09
1.29062e-09
-3.82513e-09
5.86087e-09
-5.07749e-09
3.04174e-09
1.71512e-10
-2.35167e-11
-1.47996e-10
3.82641e-09
5.77367e-09
-4.20813e-09
4.14783e-09
6.36788e-09
-4.9432e-09
-3.86906e-09
-5.45796e-09
4.40008e-09
-6.19031e-09
7.93482e-09
-6.71699e-09
2.41488e-10
-4.10696e-10
7.6937e-09
-6.86551e-09
7.02478e-09
-3.9844e-09
4.70748e-09
-4.79686e-09
-1.50125e-09
-5.28595e-09
-3.79663e-09
4.26595e-09
-3.15572e-09
-5.14379e-09
3.72366e-09
2.98457e-09
5.07233e-09
-3.76492e-09
3.67739e-09
5.67742e-09
-4.23571e-09
3.5958e-09
5.54054e-09
-4.14659e-09
-2.05347e-09
5.41522e-09
-5.22868e-09
-5.24848e-09
4.27496e-09
6.2022e-09
1.52407e-09
-2.3921e-09
-1.6315e-09
-1.77566e-10
-1.05553e-10
5.81173e-11
2.25001e-10
-3.50229e-09
3.70413e-09
5.82072e-09
5.13124e-09
4.73441e-09
-5.86627e-09
-3.99938e-09
6.3864e-09
-7.24638e-09
-2.80137e-09
3.66136e-09
1.43794e-09
-6.40322e-09
5.39626e-10
-3.90808e-10
3.68346e-11
-3.06264e-09
-3.65933e-09
2.94079e-09
-4.7596e-09
-1.03064e-09
5.18149e-09
6.08748e-10
7.08016e-09
-5.78796e-10
-3.62986e-10
5.81991e-09
-4.77618e-09
6.0589e-09
-7.10262e-09
5.31809e-09
-3.95552e-09
4.67292e-09
-6.03549e-09
3.71037e-09
5.99058e-09
-4.22279e-09
3.56711e-09
5.74979e-09
-4.06353e-09
3.62346e-09
5.85148e-09
-4.12187e-09
-2.0696e-09
2.91545e-09
-4.11945e-09
-4.53549e-09
-4.1307e-09
5.11662e-09
3.54957e-09
4.79572e-09
5.61219e-09
-3.97635e-09
-6.43156e-09
2.48129e-09
-6.38903e-09
-2.2204e-09
6.12814e-09
-1.04899e-09
4.22692e-09
-4.8447e-09
3.47192e-09
-4.04937e-09
5.42215e-09
-2.6997e-10
4.36145e-09
1.35749e-09
-4.2529e-09
-2.99016e-09
-1.0074e-09
4.35575e-09
1.69239e-09
-1.59982e-09
-4.44832e-09
-6.3095e-09
-4.14848e-09
5.73157e-09
4.72641e-09
-5.02487e-09
4.47965e-09
-4.66747e-09
5.21269e-09
7.2643e-09
2.38061e-09
-3.54532e-09
-6.09959e-09
-7.66356e-09
6.99308e-09
-2.06825e-09
2.73872e-09
-5.56064e-09
6.9223e-09
-4.86394e-09
4.36986e-10
-2.27419e-09
6.34603e-09
2.98472e-09
-6.60084e-09
-2.72992e-09
-7.29975e-09
3.7536e-09
-3.4043e-09
6.95045e-09
-5.3011e-09
-2.72005e-10
2.89811e-10
5.21204e-09
1.95377e-09
-3.59356e-09
-3.57224e-09
-5.43316e-09
6.61114e-09
-4.09856e-09
2.92058e-09
-5.54073e-09
4.81514e-09
5.2503e-09
3.18841e-09
-7.5117e-09
6.45677e-09
-2.4621e-09
1.55605e-09
-1.78672e-09
2.69277e-09
-5.72958e-09
1.04657e-09
5.06114e-09
-3.78136e-10
-1.80695e-09
8.29254e-09
-8.34941e-09
-3.7078e-09
-3.58852e-09
4.67702e-09
-2.97731e-09
4.63644e-09
-6.232e-09
-3.08551e-09
4.81288e-09
-6.46868e-09
-3.15571e-09
4.92934e-09
-6.62394e-09
-3.03384e-09
4.72754e-09
-6.35493e-09
-2.41944e-09
-4.90382e-09
2.97796e-09
-3.59638e-09
5.52224e-09
-4.67817e-09
6.40382e-09
4.62039e-09
-5.64261e-09
-7.17605e-09
8.57306e-09
4.2456e-09
-1.05724e-10
-6.11866e-10
-5.07661e-12
7.22666e-10
-4.47053e-09
6.09929e-09
-8.10569e-09
5.66748e-09
1.16722e-09
-6.18224e-09
-6.52461e-10
-6.87649e-09
-1.55271e-09
7.35047e-09
1.07873e-09
-7.15123e-09
-1.13616e-09
-4.76005e-12
-5.84351e-09
-1.05429e-09
6.22308e-10
-5.73926e-09
-1.3326e-09
9.7771e-10
-4.37323e-09
-8.85146e-10
-1.1225e-10
-4.47341e-09
-9.09789e-10
-1.12856e-10
5.97656e-09
1.4545e-09
-1.08385e-09
5.90162e-09
1.07984e-09
1.77079e-10
4.38708e-09
5.1855e-09
-5.2619e-09
-4.31068e-09
5.37946e-09
-5.58216e-09
2.44009e-09
-2.23739e-09
-3.16357e-09
-1.41788e-09
5.07463e-10
5.22428e-09
-5.39038e-09
-3.41362e-10
-4.85984e-09
-6.62786e-09
6.05913e-09
-3.27948e-09
5.63419e-09
-7.21661e-09
-2.43175e-10
1.02594e-10
-3.14954e-10
5.56317e-09
5.07892e-10
-5.34891e-11
-8.59413e-11
-5.1801e-10
6.51058e-09
1.3846e-09
6.24083e-10
-6.08174e-09
-8.46945e-10
3.95928e-10
-5.73019e-09
-4.84408e-10
-3.97811e-10
6.34224e-09
9.67771e-10
-1.18835e-10
4.08704e-10
-3.98314e-10
6.24694e-09
7.13368e-10
1.04827e-09
-7.21539e-09
-1.77483e-09
-1.74593e-10
5.95721e-10
2.90043e-11
7.30825e-11
-9.35615e-11
2.03024e-10
3.28735e-11
9.32038e-11
6.98406e-10
-5.71169e-09
-1.01291e-09
-1.19056e-10
-2.13028e-10
-6.06735e-11
1.23724e-11
-2.3946e-10
5.83446e-09
5.9659e-10
-3.19727e-10
6.32728e-09
5.09348e-10
-3.14905e-10
6.17437e-09
4.80328e-10
-3.46183e-10
6.07277e-09
5.54703e-10
-3.98482e-10
7.59038e-09
7.92382e-10
-6.14867e-11
6.64895e-11
6.85021e-10
-8.01353e-09
-1.06492e-09
9.54173e-10
-1.19476e-09
-1.30861e-09
5.98044e-09
-3.11587e-10
1.39257e-09
-7.06143e-09
-4.20918e-09
1.68646e-09
-1.01947e-09
3.54218e-09
-2.73964e-09
6.88466e-09
1.71585e-09
-4.05893e-09
5.17392e-09
-5.32848e-09
8.12997e-10
-3.67342e-09
-7.08577e-11
2.93128e-09
-6.48472e-09
-1.6432e-09
4.64354e-10
3.9937e-09
-4.04742e-09
-3.28369e-09
-3.48587e-09
-6.99743e-09
6.935e-09
3.54831e-09
3.19019e-10
5.50685e-09
-5.1406e-09
-6.85264e-10
-3.67447e-09
-6.01122e-09
2.14086e-09
3.74296e-09
-3.1026e-09
-2.78122e-09
-3.88363e-09
-4.84546e-09
2.41959e-09
-3.65258e-09
5.80116e-09
-7.77574e-09
-1.26975e-09
1.82676e-09
3.66664e-09
-4.22365e-09
-5.37548e-09
-5.33858e-09
5.88134e-09
-2.37509e-09
-7.47482e-09
5.50524e-09
4.34467e-09
8.96125e-10
3.83332e-09
-4.72944e-09
1.17607e-09
3.80005e-09
-4.97612e-09
1.48123e-09
5.11136e-09
-6.59259e-09
-3.57905e-09
3.25776e-09
-4.13693e-09
4.45823e-09
-4.18598e-09
4.54242e-09
-5.70026e-09
5.34383e-09
2.77188e-09
-2.99204e-09
5.18628e-09
4.10734e-09
-3.7892e-09
4.72936e-09
-5.0475e-09
-3.80083e-09
5.04661e-09
-1.91643e-11
-3.4814e-09
4.50746e-09
2.9715e-09
-2.39368e-09
3.13526e-09
-1.05847e-09
4.65888e-09
-1.86473e-10
-4.70452e-11
-5.68815e-09
5.64051e-09
7.20732e-09
3.55976e-09
5.43169e-09
-4.60437e-09
1.45945e-10
-2.80132e-10
3.79649e-10
-2.45462e-10
5.71062e-10
-6.54215e-09
-8.11898e-10
4.86156e-09
3.09283e-09
-5.10667e-09
-5.89245e-09
-4.66432e-09
5.61375e-09
4.94302e-09
3.76491e-09
-3.84481e-09
6.98145e-09
-6.4938e-09
-1.97496e-09
7.74708e-10
7.27799e-09
-7.42771e-09
-3.94029e-10
-5.49456e-09
3.29231e-09
7.24202e-09
-5.03977e-09
-7.12275e-09
-4.64947e-09
5.21068e-09
6.76405e-09
4.20845e-09
-4.99874e-09
-6.9427e-09
5.15042e-09
5.32848e-09
-5.05064e-09
-3.5086e-09
4.09978e-09
-5.98758e-09
-3.94397e-09
4.73012e-09
4.85289e-10
-2.5115e-09
-3.67463e-10
-6.06682e-09
3.95233e-09
-3.3298e-09
5.44429e-09
6.18538e-09
8.30629e-10
-6.44495e-09
-4.48316e-09
1.87725e-10
-2.25437e-09
6.62779e-09
-5.24523e-09
-5.66192e-09
3.73697e-09
-6.01693e-09
4.79819e-09
5.74929e-09
3.8719e-09
-3.77453e-09
5.89268e-09
-5.99005e-09
-7.22351e-10
-7.63938e-09
8.41651e-09
-5.47816e-11
2.28356e-10
5.8903e-09
8.0918e-10
3.60805e-10
5.6782e-09
5.68339e-10
-6.68359e-09
4.4596e-09
-4.43772e-09
6.66171e-09
3.72975e-09
2.32413e-09
-1.40979e-09
-4.64409e-09
3.95249e-09
5.30893e-09
-3.46068e-09
-5.80074e-09
-5.73002e-09
1.31173e-09
-2.08354e-09
6.50183e-09
-8.31816e-09
5.67481e-09
1.39186e-09
1.25149e-09
8.90453e-10
3.66139e-09
-6.07552e-09
1.52368e-09
3.39082e-10
1.32921e-09
-1.29312e-09
-3.75175e-10
-6.309e-09
-6.40673e-10
-4.33751e-10
7.38342e-09
-5.56615e-09
-3.50392e-09
4.14112e-09
-4.23648e-09
4.69368e-09
-6.05953e-09
5.60233e-09
-4.59278e-09
-4.74067e-09
4.57757e-09
4.1853e-09
-3.95192e-09
3.23192e-09
-3.4653e-09
4.94925e-09
-4.30521e-09
5.35286e-09
-5.99691e-09
3.09988e-10
-1.58351e-10
-4.91124e-09
4.43271e-10
-4.20527e-10
-5.1805e-10
4.95306e-10
-3.29924e-09
3.95092e-09
-3.64078e-09
3.61008e-09
-4.02319e-09
6.88184e-09
-6.46873e-09
5.15295e-09
3.90684e-09
-5.18271e-09
-3.87708e-09
-9.23104e-11
3.77078e-10
5.66784e-09
1.59627e-09
-1.87472e-09
-5.38938e-09
5.43264e-09
-6.15811e-09
5.58879e-09
-1.02604e-09
-2.70065e-09
5.16642e-09
-7.86988e-09
1.18213e-08
-9.11784e-09
4.08447e-09
-4.10092e-09
-1.08737e-09
1.10382e-09
3.3287e-09
5.21845e-09
-4.41422e-09
2.01855e-10
1.08279e-10
-7.43601e-09
7.12587e-09
5.15106e-09
-7.19726e-09
5.23462e-09
4.26573e-10
7.92445e-09
-2.18847e-09
-4.04079e-09
4.56037e-09
-5.59707e-09
2.38155e-09
-2.39616e-09
-3.69319e-09
4.96723e-09
1.281e-09
-5.35778e-09
7.28005e-09
3.57325e-10
-7.65146e-09
1.23266e-10
-2.30766e-10
-6.32667e-09
6.24806e-09
9.74734e-10
-6.06869e-09
5.83173e-09
1.41303e-09
-8.12071e-09
8.03757e-09
1.56436e-09
7.2816e-09
-6.18584e-09
5.90852e-09
1.06186e-09
3.96577e-11
-4.77719e-09
6.98238e-09
-8.62448e-09
5.10138e-11
1.59109e-09
-4.13102e-09
3.83386e-09
5.15891e-09
4.21574e-09
-3.87784e-09
-4.93976e-09
4.60186e-09
5.0884e-09
7.67526e-09
-5.66651e-09
-4.05716e-10
-5.02367e-10
3.97609e-10
5.10474e-10
-4.40141e-09
-1.09414e-09
6.31774e-10
4.86378e-09
-2.41713e-10
-1.59688e-11
3.20831e-10
-6.31491e-11
3.60252e-09
-4.56037e-09
3.99959e-09
-1.37344e-09
6.72016e-09
3.21116e-10
3.11067e-09
5.91511e-10
-6.37238e-09
5.55594e-09
6.71805e-09
-3.57312e-09
4.14401e-09
5.40567e-09
4.84263e-09
-4.1845e-09
-5.13155e-09
4.73121e-09
-4.09128e-09
-5.01316e-09
-4.24696e-09
3.15782e-09
-4.75437e-09
3.4272e-09
-5.5076e-09
-4.79609e-09
-2.38324e-09
4.27901e-09
3.77171e-09
2.6174e-09
-5.17014e-09
-4.59848e-09
3.41797e-09
-3.96216e-09
-5.19507e-09
3.96076e-09
-2.59058e-09
-4.34467e-09
6.77628e-09
-5.86468e-09
-3.96863e-09
4.39274e-09
1.71674e-09
-2.574e-09
8.67861e-10
7.76475e-10
6.95461e-11
-9.87697e-10
1.41676e-10
-8.80186e-10
-5.69738e-09
-8.22268e-10
7.41189e-09
1.09641e-10
4.90311e-09
4.18001e-09
-4.78286e-09
-4.30026e-09
-5.20677e-09
3.42718e-09
-2.73005e-09
4.50964e-09
-8.95413e-09
6.28663e-09
6.27758e-09
-2.42142e-10
7.10944e-09
6.48926e-09
7.83648e-10
-1.94346e-09
-1.11013e-10
-5.29284e-10
5.34573e-10
-5.12745e-09
4.27744e-09
5.84373e-09
-4.99372e-09
-1.51588e-09
2.24896e-09
-1.78176e-09
1.04868e-09
1.67191e-09
-1.49396e-09
-5.23183e-09
-2.81545e-09
-1.08722e-09
3.99586e-09
-4.17966e-09
-3.11544e-09
1.54894e-09
4.40205e-09
-1.08856e-09
-4.86243e-09
-7.46977e-09
5.017e-09
-4.15436e-09
2.93536e-09
6.19124e-09
-5.59131e-09
-5.31173e-09
5.26043e-09
1.06669e-10
-4.66156e-10
-1.3775e-10
4.97237e-10
-5.50267e-09
3.5776e-09
-5.47765e-09
5.42232e-09
1.72724e-09
7.52079e-10
6.86167e-09
3.65815e-09
-3.58748e-09
4.17902e-09
-4.24969e-09
-6.56413e-09
4.18022e-09
4.83427e-09
-4.25047e-09
4.20289e-09
-4.78669e-09
-5.38697e-09
4.68493e-09
-4.8209e-09
5.52294e-09
2.27247e-09
-1.954e-09
6.53234e-09
-6.85082e-09
4.60217e-09
-3.03718e-09
-4.93446e-09
6.71421e-09
-6.81953e-09
-5.60741e-09
-4.39048e-09
4.69844e-09
4.1789e-09
5.6675e-09
-5.70429e-09
-4.70753e-09
-5.79361e-09
5.70984e-09
5.64491e-09
4.24803e-09
-4.21735e-09
-4.15524e-09
4.34818e-09
-4.31213e-09
-4.25309e-09
-5.13333e-09
5.65183e-09
4.3344e-09
-4.71445e-09
5.36991e-09
4.05524e-09
5.50954e-09
-6.12281e-09
-4.66055e-09
3.999e-09
-4.22104e-09
-4.02507e-09
5.69248e-09
-5.806e-09
-5.59054e-09
3.99128e-09
-3.35786e-09
-7.05861e-09
-1.13506e-09
6.80765e-09
1.38602e-09
1.11902e-09
-3.68203e-09
7.41767e-09
-5.14372e-09
4.36817e-09
-5.08437e-09
5.20411e-09
-4.63629e-09
4.51655e-09
5.69065e-11
-7.82082e-09
7.87219e-09
-4.12438e-09
4.17191e-09
1.0715e-09
-1.37023e-09
1.48426e-09
-1.96684e-09
-8.25273e-10
-1.0476e-09
7.06081e-10
1.16679e-09
6.65726e-09
-4.60085e-09
3.93344e-09
-5.12643e-09
-4.35927e-09
4.86354e-09
4.62216e-09
3.50245e-10
-4.70068e-11
3.02896e-09
-4.91281e-09
6.67367e-09
-6.00899e-09
-4.13695e-09
-4.96456e-09
-4.5327e-10
6.82707e-09
-1.40924e-09
-4.79201e-09
4.01078e-09
6.6128e-09
-5.83157e-09
3.70112e-09
3.37778e-09
-3.33714e-09
-3.74176e-09
5.81785e-09
-4.41516e-09
-6.27758e-09
2.27286e-09
-3.63991e-09
-1.53352e-09
2.90056e-09
1.17943e-09
-1.05085e-09
1.17025e-09
-1.29883e-09
4.51563e-09
-4.93057e-09
-3.5852e-09
4.00014e-09
4.75731e-09
-5.49887e-09
7.5678e-09
-5.17344e-09
-5.47272e-09
6.13514e-09
7.91207e-09
-6.31545e-09
3.55633e-09
2.27656e-09
-1.67121e-09
6.04071e-10
-1.20942e-09
-8.92575e-10
-4.39364e-10
5.41641e-09
-2.37905e-09
2.8169e-09
-5.5368e-09
-5.04219e-09
-3.32514e-09
4.2842e-09
4.08312e-09
-3.98426e-09
-5.9352e-09
-2.61665e-09
2.6113e-09
2.53211e-09
7.88687e-10