/*--------------------------------*- C++ -*----------------------------------*\
  =========                 |
  \\      /  F ield         | OpenFOAM: The Open Source CFD Toolbox
   \\    /   O peration     | Website:  https://openfoam.org
    \\  /    A nd           | Version:  8
     \\/     M anipulation  |
\*---------------------------------------------------------------------------*/
FoamFile
{
    version     2.0;
    format      ascii;
    class       surfaceScalarField;
    location    "6.2";
    object      phi;
}
// * * * * * * * * * * * * * * * * * * * * * * * * * * * * * * * * * * * * * //

dimensions      [0 3 -1 0 0 0 0];

internalField   nonuniform List<scalar> 
10659
(
-8.66386e-09
8.84833e-09
2.22298e-10
-4.06765e-10
3.72457e-10
-7.39108e-10
8.60881e-09
-8.24216e-09
8.54298e-09
-7.83596e-09
5.38245e-10
-1.24526e-09
-8.41683e-09
-3.84655e-10
1.37618e-10
-1.27384e-08
3.31037e-09
1.01272e-08
-6.99152e-10
-3.38765e-10
5.98748e-09
-6.29049e-09
6.41776e-10
1.11407e-10
4.6037e-11
-7.94166e-11
-7.80269e-11
-1.51743e-09
-2.44864e-09
2.39894e-09
1.56713e-09
8.95539e-09
-8.79734e-09
2.91699e-11
-1.87225e-10
-2.47802e-09
2.16976e-09
-4.08923e-09
4.39749e-09
-9.2963e-09
-6.91931e-11
1.17278e-10
9.24821e-09
-4.06219e-10
5.05726e-09
-4.65105e-09
-8.67174e-09
8.94642e-09
2.21759e-10
-4.96435e-10
1.38834e-10
8.14322e-09
-2.94866e-10
-7.98719e-09
-6.36505e-11
2.91244e-10
8.7278e-09
-2.019e-09
-3.79733e-09
3.33831e-09
-2.34222e-10
2.32609e-10
1.61331e-12
-2.07412e-09
-5.92764e-09
4.27662e-09
3.72515e-09
-7.22531e-09
-3.5175e-10
1.01033e-09
6.56672e-09
-8.5304e-09
-2.55964e-10
-1.09728e-11
-4.7296e-09
4.88586e-09
-1.56259e-10
9.22242e-11
-1.17777e-10
1.3696e-10
5.04095e-09
3.03343e-09
-7.55224e-09
-5.22137e-10
-1.41998e-10
5.83382e-09
-5.5763e-09
-2.57516e-10
-9.55985e-09
-2.12688e-10
6.81667e-10
9.09087e-09
-8.45163e-09
-3.29548e-10
1.09438e-10
9.04494e-09
1.87026e-10
-3.83632e-10
5.52561e-09
-2.47173e-09
-6.5312e-09
3.47732e-09
8.83015e-09
-8.71305e-09
1.20333e-12
-1.18303e-10
-9.2033e-09
9.5155e-09
6.21748e-10
-9.33952e-10
2.36595e-10
1.12431e-10
-2.24345e-10
-1.24681e-10
-7.55935e-09
6.29205e-09
3.43241e-09
-2.1651e-09
-1.14544e-08
2.78557e-09
9.0143e-09
-3.45457e-10
-9.54468e-09
-1.09214e-10
4.03867e-10
9.25003e-09
6.84187e-09
3.86028e-10
-7.07162e-09
-1.56281e-10
6.49308e-09
-5.78575e-09
-2.48135e-10
-4.59193e-10
7.4099e-09
-6.20116e-10
1.88394e-10
-6.97818e-09
-9.7172e-09
1.98361e-10
-2.00549e-10
9.71939e-09
1.34868e-10
7.68425e-09
8.99681e-10
-8.7188e-09
-7.74074e-09
1.09005e-09
8.42864e-09
-1.77794e-09
4.47316e-09
-1.00969e-09
3.02961e-09
9.11456e-09
3.20476e-10
-8.9206e-10
5.41929e-09
3.02988e-09
-3.74671e-09
-4.70245e-09
-2.59332e-09
2.50599e-09
9.31943e-09
-9.2321e-09
-3.133e-10
-7.46168e-09
1.78633e-10
7.59635e-09
-3.52935e-11
2.63686e-11
8.83908e-09
-9.17613e-09
2.96135e-10
-8.37209e-10
-1.59843e-09
-8.39608e-09
1.65054e-09
8.34398e-09
-7.89455e-09
5.95716e-09
-6.37926e-09
8.31665e-09
1.20169e-09
4.95042e-09
-5.33628e-09
-8.15828e-10
-8.63127e-09
-2.3013e-11
-5.87691e-11
-6.81813e-10
-9.01786e-09
1.54989e-10
-9.08407e-09
-3.15031e-11
-3.22654e-11
9.14784e-09
9.36702e-09
1.76226e-10
-5.96829e-10
5.67259e-10
-8.51713e-09
-1.39218e-10
8.08908e-09
-1.2106e-08
-1.71419e-10
-3.66799e-10
1.26442e-08
-2.74987e-09
5.95057e-09
-1.06714e-08
7.47073e-09
8.803e-09
-8.13166e-10
-8.28506e-09
2.95222e-10
-9.24387e-09
9.33683e-09
-3.2228e-09
3.12984e-09
-2.17947e-09
4.68203e-09
3.02305e-09
9.67116e-09
-1.71162e-09
6.96861e-10
-8.65639e-09
-8.29241e-09
-1.51829e-09
6.78024e-09
3.03047e-09
1.2679e-09
-2.34734e-09
2.26515e-09
-1.18571e-09
5.67985e-12
7.17031e-11
1.91532e-10
-2.68915e-10
-5.84141e-10
1.49688e-09
-5.8224e-09
4.90966e-09
-5.62756e-10
2.33536e-09
-3.79161e-09
-7.29151e-09
-1.11872e-09
8.41022e-09
-4.26984e-10
8.19706e-09
8.6457e-11
-7.85653e-09
-4.97497e-10
9.2798e-09
3.1416e-10
-9.09647e-09
9.0403e-09
8.24573e-11
-8.9244e-09
-8.75696e-09
-4.92342e-10
1.50283e-09
7.74647e-09
2.90358e-11
3.47239e-09
-1.0142e-10
-3.4e-09
-2.78858e-09
-7.4269e-10
3.52804e-09
3.22699e-12
4.50009e-09
-4.34723e-09
1.04882e-09
-8.22664e-09
-2.71209e-10
7.72444e-10
7.72541e-09
3.71039e-09
3.77461e-09
-1.81633e-09
-5.66868e-09
-4.46589e-10
-9.24826e-09
1.19557e-10
9.57529e-09
7.22456e-09
-1.48305e-09
1.25592e-09
-6.99744e-09
9.2032e-09
-1.48584e-09
-8.38708e-09
6.69722e-10
2.37201e-09
-7.24479e-10
2.82563e-09
5.37712e-09
-4.41888e-09
4.73404e-09
-5.69228e-09
-4.39307e-09
5.32664e-09
-4.91637e-09
3.98281e-09
-7.32892e-09
4.11238e-10
-3.0762e-10
1.14674e-08
4.75279e-10
-3.35095e-09
-8.59175e-09
-5.54104e-10
8.58473e-09
1.13595e-10
-8.14422e-09
-1.42042e-09
4.83334e-09
-3.41292e-09
2.48264e-09
-6.50396e-10
8.08915e-10
-2.64116e-09
1.14856e-08
-3.84153e-09
-8.49213e-09
8.48053e-10
-5.18911e-09
-1.80054e-10
-4.16587e-10
-5.03276e-09
4.65183e-09
1.95509e-09
-1.57416e-09
3.86551e-10
-1.84458e-09
8.01861e-09
-6.56058e-09
-8.48629e-09
1.46888e-09
-5.77173e-10
7.59457e-09
-8.45848e-09
-5.91015e-11
3.08812e-10
8.20877e-09
2.19298e-09
7.25016e-09
-4.99161e-09
-4.45154e-09
-3.99565e-09
3.97975e-09
2.00875e-09
-1.99286e-09
-9.15947e-09
-8.08879e-10
1.90578e-09
8.06257e-09
5.42974e-09
4.29568e-09
-6.208e-09
-3.51742e-09
-4.62466e-09
1.11679e-08
3.07938e-09
-9.62265e-09
7.14736e-09
-2.55386e-09
-8.33764e-09
3.74413e-09
-5.04492e-09
5.22135e-09
-1.76424e-10
7.58e-09
-1.53731e-10
-7.94722e-11
-7.3468e-09
1.92968e-09
-5.85336e-09
5.13496e-09
-1.21128e-09
-3.88998e-09
-2.21377e-09
2.1081e-09
-9.84959e-09
1.59169e-10
-1.76399e-09
1.42707e-10
4.12911e-10
8.76016e-09
-9.31578e-09
-5.43613e-09
-7.35783e-09
3.75278e-09
9.04119e-09
-4.79323e-10
-5.5516e-09
1.16023e-08
-5.57139e-09
-2.70576e-09
-5.96643e-10
7.88833e-10
2.51357e-09
-1.50252e-10
-2.94739e-10
2.32531e-10
2.1246e-10
3.32993e-09
-2.86955e-09
2.86765e-09
-3.32802e-09
3.12502e-09
1.0486e-10
-3.05169e-09
-1.78189e-10
7.58524e-09
-8.68512e-09
1.30492e-09
-2.05036e-10
7.81561e-09
2.65079e-11
-2.71944e-10
-7.57018e-09
-9.36715e-09
-6.78428e-10
1.93354e-09
8.11204e-09
-1.24365e-09
7.11639e-09
-7.53049e-09
1.65776e-09
1.17675e-08
-3.04852e-10
-7.04033e-09
-4.42232e-09
8.10895e-09
-2.96509e-10
-2.27195e-10
-1.15058e-10
3.29405e-10
8.5716e-09
-8.78594e-09
-3.44909e-09
3.28995e-09
-9.08474e-09
-4.42607e-10
-9.34924e-09
1.46046e-10
9.6458e-09
7.07546e-09
-7.32453e-09
-7.28382e-09
7.53289e-09
-6.20064e-09
2.55077e-09
6.6017e-09
-2.95183e-09
4.37138e-10
-5.41499e-10
5.09302e-09
2.22664e-11
1.08863e-09
-6.20392e-09
4.33735e-09
2.81969e-10
-3.90219e-09
-7.1712e-10
-5.38966e-09
5.52849e-09
5.49824e-12
-1.00819e-08
-1.03473e-09
1.11111e-08
3.68227e-09
2.44991e-09
-2.80225e-09
8.70556e-09
-8.33845e-09
-5.73418e-10
2.06306e-10
-6.44851e-10
-8.9234e-09
9.07075e-09
-1.51725e-09
-2.83673e-10
6.77355e-09
-4.97263e-09
-6.75475e-09
5.5142e-09
1.19397e-09
4.6581e-11
-1.93871e-10
-7.53821e-09
8.16755e-11
7.6504e-09
-3.90258e-10
1.2599e-10
-8.91186e-09
-2.51079e-09
2.68273e-09
-1.71938e-10
8.82668e-09
-6.73613e-11
3.01794e-10
-9.06111e-09
-3.23189e-09
3.23049e-09
3.04328e-11
-1.76812e-09
-3.45289e-09
3.16692e-09
2.05408e-09
-8.20859e-09
-1.96702e-10
8.00307e-09
4.0223e-10
-2.36726e-09
-4.04261e-09
3.54031e-09
-7.08035e-10
7.76057e-10
-6.80219e-11
-9.2535e-09
1.35952e-09
-8.62978e-10
6.42403e-09
5.8295e-10
-1.9974e-09
-5.00958e-09
4.13357e-12
-8.46289e-11
1.87621e-10
-1.07126e-10
7.62087e-09
3.69716e-09
-1.00551e-08
-1.26288e-09
-2.7711e-09
-2.31057e-11
-1.17752e-08
-1.34681e-09
2.26361e-09
6.70407e-09
-7.997e-09
2.52467e-09
-4.22712e-09
9.69945e-09
-4.17369e-09
4.33993e-09
5.26351e-09
-1.44075e-10
1.92763e-10
-1.1003e-11
-3.7685e-11
-3.58941e-10
4.51146e-10
-2.20346e-09
2.11125e-09
-1.90962e-10
-4.85396e-09
-1.18005e-09
1.28526e-09
-1.05208e-10
2.21291e-09
5.22866e-09
-5.49942e-09
-1.94215e-09
2.90053e-11
3.40198e-10
-6.33945e-11
-3.05808e-10
-9.54324e-11
6.61147e-11
1.97784e-09
-1.94852e-09
-9.0836e-10
5.8322e-09
2.90455e-09
-7.82839e-09
-1.33364e-09
5.00811e-09
-6.30409e-09
2.62962e-09
-8.42526e-09
6.36433e-10
9.38086e-09
-1.59203e-09
-6.96713e-09
6.79108e-09
2.81338e-10
-1.05289e-10
8.07712e-09
-2.27866e-09
1.77547e-10
-5.976e-09
-2.12491e-09
1.518e-09
7.03094e-09
7.67472e-10
-5.07739e-09
-7.49684e-10
5.0596e-09
-2.36277e-09
2.11323e-09
3.95329e-09
4.41166e-09
-4.9357e-09
-3.42924e-09
3.86856e-10
5.53102e-12
2.458e-12
-3.94845e-10
-1.38824e-09
4.67885e-10
1.05915e-08
-8.98034e-09
2.37964e-11
-1.30054e-09
1.02571e-08
1.0289e-08
-3.90504e-09
2.00328e-09
-8.38723e-09
1.89501e-09
-1.04632e-09
-9.77974e-09
8.93105e-09
9.24748e-09
1.02601e-09
-4.40972e-10
-9.83252e-09
9.36986e-11
-2.52207e-10
-6.59624e-09
2.52298e-10
-1.65954e-10
-9.24145e-09
9.27096e-10
-8.45109e-10
-3.92554e-10
-7.14628e-10
-9.99259e-09
1.10998e-08
-1.65276e-09
-9.07569e-09
2.37622e-09
8.35223e-09
9.4274e-11
-1.09021e-09
1.19349e-09
-1.97561e-10
-2.09068e-09
-8.65371e-09
2.64065e-09
8.10374e-09
-8.17859e-10
-8.80823e-09
1.77956e-09
7.84653e-09
-9.25276e-09
-9.35263e-10
9.4911e-09
6.96923e-10
2.53375e-09
-1.69734e-09
1.22043e-09
-2.05684e-09
-6.19473e-10
-8.74471e-09
1.49854e-09
7.86564e-09
2.88175e-11
-2.17782e-12
7.38326e-09
-2.38289e-10
2.7541e-10
-3.71211e-11
5.54305e-10
-7.88627e-09
7.86047e-09
-5.28499e-10
6.91863e-09
5.7468e-10
-2.6914e-10
-7.22417e-09
1.9356e-10
-1.03557e-08
-2.5762e-09
-1.54904e-09
-1.43174e-10
1.56194e-09
1.3027e-10
4.22405e-09
-1.13188e-09
-4.86029e-09
1.05249e-09
4.32463e-09
4.85462e-09
-4.30031e-09
9.11012e-09
3.98054e-09
-1.32315e-09
7.49704e-10
2.09266e-10
-7.55769e-10
-2.03202e-10
-8.39831e-10
3.57933e-09
-3.48406e-09
7.44561e-10
-9.87271e-09
1.14449e-09
-6.38938e-10
8.65635e-09
9.13143e-10
-9.00223e-09
5.05135e-10
-4.56682e-10
-1.51388e-10
1.02934e-10
5.25353e-09
-2.50234e-09
-4.52109e-09
1.7699e-09
3.04033e-10
-1.93895e-10
-8.74141e-09
-2.40779e-09
2.12865e-09
7.59234e-10
-4.8009e-10
-2.13018e-09
-6.7592e-10
-6.37723e-09
9.18333e-09
-3.96993e-11
-3.80161e-10
4.1986e-10
-2.47285e-09
2.26514e-09
-8.1285e-09
7.03705e-09
-6.57932e-09
7.67076e-09
-1.42456e-09
9.38906e-09
2.11176e-09
3.1506e-10
-8.07543e-10
-3.42879e-10
8.35361e-10
-4.65205e-10
-2.68036e-09
7.37773e-10
-6.50088e-09
-1.17235e-09
7.63487e-09
3.83609e-11
2.89172e-09
-9.11012e-09
1.0448e-08
-4.22957e-09
-3.18667e-09
-6.59083e-09
-1.23812e-10
9.90131e-09
-5.07832e-10
-2.35498e-09
2.65421e-09
2.086e-10
-4.59466e-10
3.01108e-10
1.02131e-08
-2.0676e-09
1.37002e-09
-1.35767e-09
2.78009e-10
-6.75631e-09
-2.08205e-10
-8.06146e-09
6.10677e-11
-1.41025e-10
7.57755e-09
-1.26602e-10
-7.30992e-09
-3.53493e-10
1.71761e-10
1.1834e-09
-9.69584e-09
-9.17422e-10
9.42986e-09
8.38255e-11
4.0972e-10
-3.64323e-10
-1.29223e-10
2.86532e-09
-3.10285e-09
-6.24794e-09
6.48548e-09
8.86441e-11
-7.75864e-11
-1.5601e-09
6.27867e-09
7.63626e-09
-9.42768e-09
-4.48725e-09
-2.18652e-10
2.58229e-11
2.51708e-09
-8.41098e-09
-3.37728e-11
5.92768e-09
-9.05687e-09
9.09797e-09
3.26927e-09
-1.25272e-10
1.39557e-10
7.56572e-09
2.48921e-09
-1.93077e-09
-8.46616e-09
7.90772e-09
1.1806e-11
-5.55777e-11
-3.33091e-10
-1.97249e-09
2.14915e-09
1.56434e-10
3.98303e-10
-5.47227e-09
5.07397e-09
3.99292e-09
-7.27439e-10
-6.59544e-09
3.32996e-09
-2.2353e-10
4.12219e-11
-3.38418e-09
1.25205e-09
-1.39172e-09
3.52385e-09
3.41869e-10
-4.77639e-09
4.43452e-09
-8.14801e-09
5.23895e-09
-2.45004e-09
5.3591e-09
-4.55541e-10
7.21028e-10
1.86316e-09
-2.03765e-10
2.17595e-09
-2.06761e-09
-2.65519e-10
-1.67744e-09
1.81466e-09
1.28307e-10
4.58052e-11
-8.51665e-09
1.92148e-11
5.59802e-10
-1.71746e-10
1.1708e-10
-1.49884e-09
2.12366e-09
-7.76268e-09
7.13786e-09
1.42749e-08
-1.26344e-08
1.28313e-09
-2.9237e-09
3.20941e-09
6.99676e-09
-6.86913e-09
-3.33704e-09
-2.28136e-10
1.54094e-09
1.11285e-10
-1.42408e-09
2.6668e-09
-6.38287e-09
6.58138e-09
-5.32152e-09
5.36758e-09
4.175e-09
-4.22106e-09
-4.3914e-09
1.72079e-09
5.87328e-09
-3.20267e-09
-6.86277e-09
-2.64696e-09
6.80932e-09
2.70042e-09
-7.72564e-10
2.13912e-09
1.16719e-09
-3.79594e-10
4.2372e-10
8.13064e-09
6.21445e-09
-5.91136e-09
-8.43373e-09
-8.51363e-09
8.65425e-09
1.65176e-10
-3.05798e-10
-5.85341e-09
5.05358e-09
1.01878e-09
-2.1896e-10
-6.6014e-09
-3.06458e-10
7.01614e-10
6.20625e-09
1.48318e-10
-7.78701e-09
8.08242e-09
-4.43729e-10
-9.98364e-09
4.49906e-09
-3.86451e-09
9.34909e-09
-8.86445e-09
-6.99761e-10
1.33757e-09
4.36476e-10
-8.82323e-09
-1.43644e-10
5.73012e-09
2.50673e-10
-1.64345e-09
1.41075e-08
-1.03039e-08
-8.42817e-09
-9.81324e-11
-8.47393e-09
1.55235e-10
5.30088e-09
-4.92842e-09
4.15984e-09
-5.21e-09
6.16309e-09
-5.11293e-09
1.11649e-10
-1.5054e-09
1.4824e-09
4.85187e-09
-8.54216e-10
-6.90101e-09
2.90336e-09
-1.01951e-09
1.18632e-09
-9.30424e-09
9.13743e-09
1.15164e-08
-1.50227e-09
-9.71267e-09
-3.01508e-10
-1.80081e-09
5.38255e-11
1.8131e-09
1.33124e-10
-6.23186e-10
-6.00471e-11
5.5011e-10
7.38679e-10
-3.23861e-10
2.76585e-10
-6.91403e-10
8.24588e-09
-2.51737e-09
-7.08618e-09
7.39546e-10
-1.01257e-10
1.11415e-10
5.65156e-09
-1.29663e-09
-6.44524e-09
2.09031e-09
5.46779e-09
-8.94619e-09
1.00945e-08
-6.61608e-09
2.68954e-10
-1.22656e-09
-2.50559e-10
1.20817e-09
-1.98393e-09
2.62367e-09
-2.46064e-09
1.8209e-09
8.00022e-09
-7.74599e-09
2.18817e-10
-4.73045e-10
-2.85656e-11
8.7301e-09
4.79299e-11
-8.74946e-09
-9.48514e-09
9.14403e-09
-6.78405e-10
-3.12367e-10
3.41372e-10
-1.84032e-10
9.00803e-10
-9.21069e-10
2.04298e-10
-7.71349e-10
-3.5451e-10
9.1611e-10
2.0975e-10
6.28791e-09
-3.0925e-09
-4.72711e-09
1.5317e-09
-6.11749e-09
6.0483e-09
3.46017e-09
-3.03417e-09
-1.28145e-09
8.55457e-10
2.92426e-09
5.50374e-09
-4.85267e-09
-3.57533e-09
-8.51758e-10
-1.57945e-12
-1.93524e-09
-9.18066e-09
1.066e-09
-1.82876e-09
9.94343e-09
-2.90814e-10
8.32256e-09
-1.74364e-10
-7.85738e-09
-7.67814e-09
2.89859e-09
7.99278e-09
-3.21323e-09
-7.50161e-09
-1.80548e-09
2.44431e-09
2.54175e-09
-2.13773e-09
-4.7971e-09
-5.56296e-09
-7.68861e-11
5.63985e-09
-5.75271e-09
5.68906e-09
2.92756e-09
1.16315e-08
-6.36804e-09
-8.19105e-09
7.39557e-09
-7.11087e-10
-8.03129e-09
-1.04583e-10
7.06281e-10
-3.30746e-09
-5.52931e-09
6.38838e-09
-7.94124e-10
-6.49481e-11
1.73707e-09
-5.0264e-09
-4.76769e-09
8.05701e-09
-2.31534e-10
8.62032e-09
1.87616e-10
-8.5764e-09
1.80565e-09
-2.22846e-10
-2.03835e-09
-8.56458e-09
8.98924e-09
-8.09318e-10
-6.33134e-09
5.68519e-09
5.97278e-09
4.9604e-09
1.28304e-09
-6.47135e-09
2.27915e-10
-7.90535e-10
-8.12075e-09
8.04043e-09
8.70856e-10
6.64025e-10
-8.74453e-09
9.26391e-09
1.00364e-09
-1.13333e-09
-3.53877e-10
4.83572e-10
8.57228e-09
-5.94129e-10
1.57835e-10
-8.13598e-09
-5.18329e-10
-8.01338e-09
8.06939e-09
4.62318e-10
-6.17562e-09
5.96293e-09
-3.62307e-09
-6.28839e-09
6.80861e-09
-4.83307e-09
-4.20937e-09
4.86874e-09
1.25977e-09
9.15684e-09
-1.92728e-09
-8.48934e-09
7.11916e-09
2.59452e-10
-7.77724e-09
3.98633e-10
9.62082e-10
8.32565e-09
-6.31386e-10
3.72138e-09
-3.87854e-10
-9.18319e-09
5.84966e-09
-9.10077e-09
-7.96846e-10
-1.21176e-08
-6.15976e-09
1.01489e-08
-7.38768e-11
-6.34158e-10
5.40448e-11
-1.60919e-10
6.23909e-09
-6.34831e-09
-2.13018e-11
9.95587e-09
-1.229e-09
-3.13117e-09
3.57968e-10
3.30641e-09
-5.33211e-10
8.16269e-09
3.78795e-10
-8.06892e-09
-4.72563e-10
-1.3888e-10
8.74757e-09
-9.17184e-09
5.63148e-10
2.45647e-09
1.0905e-08
-3.13177e-09
-1.02297e-08
-2.99099e-09
4.68211e-10
1.09162e-08
-8.39346e-09
3.44498e-09
2.84533e-09
-3.9183e-09
6.19761e-09
-6.01059e-09
-2.45644e-10
-1.03708e-08
8.48626e-09
1.06852e-10
3.61381e-10
-1.39256e-10
-3.28977e-10
-1.59886e-10
2.06606e-10
-3.28196e-10
2.81475e-10
-5.54065e-09
-2.54516e-09
5.8918e-09
2.19401e-09
7.12047e-09
-6.49872e-09
-5.75473e-09
5.71943e-09
-6.55489e-10
-1.69027e-10
7.50639e-10
-6.57169e-09
1.05945e-08
-4.27877e-09
5.70713e-10
-5.70203e-11
-5.13693e-10
8.95379e-10
-9.86957e-09
1.22643e-10
8.85154e-09
-1.13675e-09
-8.84852e-09
1.16552e-09
8.81975e-09
-8.07596e-10
7.16943e-10
-2.52891e-10
3.43544e-10
-8.61496e-09
3.5466e-09
-2.05701e-09
7.12537e-09
-4.91901e-09
5.06733e-09
-7.50108e-09
-3.86023e-10
7.69614e-09
9.37091e-10
-5.14419e-10
8.72627e-09
-9.14894e-09
-8.94662e-09
1.39743e-09
2.49603e-09
-2.25751e-09
-4.42289e-10
-6.8276e-09
-1.3173e-10
6.59362e-09
3.65711e-10
1.03733e-08
-8.4539e-09
-1.5211e-09
-1.08558e-09
-9.44753e-11
-6.70781e-09
-2.95376e-09
7.10521e-09
2.55636e-09
1.05866e-09
-8.21223e-09
7.70585e-09
-5.52288e-10
1.14663e-08
-9.45977e-09
-2.07617e-09
6.96767e-11
5.96591e-10
-6.73169e-10
-8.34868e-09
-1.45284e-10
-2.72506e-10
2.57904e-10
-5.62525e-09
5.94573e-09
-7.11587e-10
-8.12049e-09
7.89298e-09
9.39094e-10
6.87025e-09
-5.72235e-09
2.55452e-09
-3.70242e-09
-2.18824e-09
3.17685e-09
8.12151e-09
8.40562e-09
-8.5551e-09
1.78064e-10
-2.85821e-11
-8.49633e-09
8.96454e-09
-7.9775e-10
3.76483e-10
7.10349e-09
5.66682e-10
-8.04666e-09
-5.91022e-09
5.87871e-09
-4.24134e-10
-5.31508e-09
5.73921e-09
-9.4681e-09
-1.43027e-09
1.0028e-08
8.70364e-10
-1.55131e-09
-7.93558e-09
1.80876e-09
3.33597e-09
-1.77252e-09
-2.60562e-09
1.04217e-09
5.67019e-09
6.95142e-09
-5.75137e-09
-9.35891e-09
8.91682e-09
3.8097e-10
6.11233e-11
5.70903e-09
-5.84791e-09
9.72661e-09
-6.22828e-09
-6.98024e-09
3.48191e-09
-5.26439e-10
2.98958e-09
9.00313e-09
-2.05517e-13
-1.24917e-11
3.99553e-10
5.85828e-09
-7.47416e-09
2.98092e-10
7.55648e-10
-2.06131e-10
1.10632e-10
-6.7585e-10
8.89628e-09
-9.04405e-09
2.71882e-10
-1.24115e-10
-1.83681e-10
3.82122e-10
3.27395e-09
2.2217e-09
-2.1833e-09
-6.23903e-09
-8.71726e-09
1.53363e-10
8.61453e-09
-5.0638e-11
-4.80155e-09
4.67628e-09
-4.07594e-09
7.29556e-09
-4.64534e-09
1.42572e-09
-2.33771e-09
7.92938e-09
2.35913e-09
-7.9508e-09
6.66242e-09
4.32972e-09
-2.8615e-09
-9.06355e-11
-5.59369e-09
5.68433e-09
-8.81786e-09
-1.5197e-09
2.3319e-09
8.00566e-09
-1.04607e-08
9.03991e-09
-1.14869e-09
2.56953e-09
-5.97357e-09
6.1498e-09
-9.12055e-11
3.46807e-10
-2.43499e-10
-1.21019e-11
-6.72186e-09
-6.29459e-10
7.93427e-09
8.74266e-09
-8.58222e-09
-3.24769e-10
1.64338e-10
-1.95303e-09
-2.04188e-09
2.19941e-09
1.7955e-09
-9.67305e-09
8.76376e-10
-3.91705e-10
9.18838e-09
4.66536e-10
-1.70331e-10
8.60008e-09
9.11159e-10
9.17516e-09
-9.61978e-09
-9.84782e-09
1.50548e-09
-2.86071e-09
-1.09456e-09
1.26133e-09
2.69394e-09
-8.47804e-09
-1.1704e-09
9.2243e-09
-6.30982e-09
5.78338e-09
5.70801e-10
-9.00488e-09
-6.66687e-10
4.1117e-09
-5.47657e-09
-5.80602e-09
7.17088e-09
-1.26371e-09
6.1077e-09
-6.3102e-09
-2.1087e-09
2.51533e-09
5.90356e-09
-8.86592e-09
8.96321e-09
6.41167e-11
-1.61411e-10
-2.31084e-09
9.27192e-10
-7.00992e-10
2.08464e-09
-3.53068e-10
-1.38561e-09
1.51054e-09
1.81495e-09
-6.97291e-11
8.37427e-11
-1.82896e-09
4.54971e-11
-7.47666e-11
-2.11283e-10
2.40552e-10
-8.78795e-09
9.2598e-09
-4.94863e-10
6.97254e-10
-9.86935e-09
9.69266e-09
-5.20558e-10
-4.07452e-10
-1.63966e-09
1.78159e-09
8.01823e-09
-1.3969e-09
-8.80957e-09
-6.46116e-09
4.46179e-09
7.95653e-09
9.08231e-09
-9.21485e-09
1.60807e-10
-2.82631e-11
5.44357e-09
-5.6139e-09
-4.60672e-10
6.24014e-09
-5.77947e-09
-4.99338e-10
-1.93016e-09
2.09641e-09
6.34452e-11
-1.35102e-10
-5.83832e-10
2.10449e-09
-8.71287e-09
9.09257e-09
-2.48419e-09
9.2671e-09
-9.88104e-09
3.38641e-11
4.88267e-10
2.52567e-09
-5.87173e-10
-9.87552e-09
7.93702e-09
-7.47585e-09
2.00019e-09
-1.75741e-09
7.23307e-09
-4.88048e-09
3.97282e-09
4.90058e-09
8.1693e-10
6.02614e-09
-1.04211e-09
-5.80096e-09
-3.8075e-10
1.85519e-10
4.01309e-10
6.33497e-11
-4.59128e-10
-6.63446e-10
2.09768e-10
-7.88495e-10
-2.29667e-09
2.57733e-09
5.73605e-10
-1.56895e-10
8.6656e-09
1.00396e-09
9.17576e-09
-9.60612e-09
-8.93892e-09
7.01429e-10
-9.60016e-09
1.04537e-08
-1.30008e-09
1.98385e-09
5.37511e-09
-2.25319e-09
-5.10578e-09
-1.00093e-09
1.00647e-09
-1.89569e-10
1.60621e-09
-1.91604e-10
3.9104e-10
3.0365e-09
-6.36423e-09
2.19579e-11
5.73802e-09
-5.75997e-09
-7.55309e-09
-3.63421e-10
1.70515e-10
-9.42198e-09
6.61651e-10
9.45759e-09
8.64625e-09
-8.70352e-09
1.30636e-10
-7.33748e-11
-5.81595e-09
5.89841e-09
-4.86131e-09
3.9715e-10
3.45446e-09
8.81791e-12
-5.64487e-09
5.63605e-09
8.98548e-10
-3.1715e-10
4.22241e-10
7.94614e-09
1.36012e-10
-2.6654e-10
5.27723e-10
-3.25808e-10
-1.80202e-10
-2.17135e-11
1.29385e-09
-1.45313e-09
1.46002e-09
-1.30074e-09
-1.02983e-08
-1.83194e-09
1.13254e-08
8.04808e-10
2.41365e-10
-1.15012e-10
8.5199e-09
2.81494e-09
-6.0191e-09
8.81742e-09
-5.61327e-09
-5.63448e-09
5.47758e-09
-1.66607e-10
5.42935e-09
-5.26275e-09
2.59152e-10
9.2496e-09
-9.26739e-09
-9.672e-09
5.84412e-11
2.84163e-09
-2.78759e-09
-3.11856e-10
-1.90289e-10
2.778e-10
1.93687e-09
5.3397e-09
-7.38515e-09
1.08571e-10
-8.77897e-09
8.78188e-09
-9.0218e-12
6.10851e-12
8.74205e-09
-8.67625e-09
-4.38064e-11
-2.19982e-11
5.2625e-09
-5.04368e-09
2.36661e-10
-3.98431e-10
8.10791e-09
-2.6365e-09
-7.9119e-09
8.27798e-09
2.27042e-09
-5.60139e-09
1.03283e-09
6.55241e-09
-7.55043e-09
-4.49454e-11
5.25766e-09
-6.93603e-09
1.2293e-11
-4.33926e-11
-5.07463e-09
-4.46825e-09
3.36627e-09
6.17661e-09
-6.79205e-09
8.89653e-09
-8.43119e-09
-6.56459e-09
6.96047e-09
8.0353e-09
-8.00292e-09
-8.35681e-10
1.28818e-09
-5.46102e-09
5.34601e-09
-1.9703e-10
5.66274e-09
-5.46571e-09
-7.72215e-09
-1.19917e-09
1.44547e-09
2.64714e-09
-7.02168e-09
-1.14921e-08
3.90133e-09
6.69461e-09
-9.12366e-09
-1.47228e-09
5.60494e-10
-8.53442e-09
-1.00642e-09
-9.32295e-09
-9.6925e-10
-8.19698e-09
-4.67819e-10
7.95322e-09
-4.5284e-11
3.16794e-10
-3.53932e-10
8.24223e-11
-1.36508e-09
1.61487e-09
-2.61256e-09
-5.28614e-09
5.08944e-09
-6.87983e-09
8.46291e-09
-2.28071e-09
6.97627e-10
8.12998e-09
8.30981e-09
-7.19446e-09
-9.24533e-09
-5.57723e-09
4.28317e-11
5.53439e-09
-7.10472e-10
-7.97355e-09
7.89349e-09
-9.5887e-09
-6.29877e-10
9.08183e-09
3.25151e-10
7.45404e-11
2.95651e-09
3.8986e-09
-6.85511e-09
9.68048e-09
-5.97982e-09
-3.92573e-09
2.25071e-10
-2.53269e-09
-6.6488e-09
3.66665e-09
5.51485e-09
-1.0663e-08
5.98945e-09
7.13005e-09
9.00839e-09
2.87284e-10
-9.16156e-09
-1.34118e-10
1.32763e-09
2.14932e-09
-1.37702e-09
-2.09993e-09
-1.98008e-09
4.70338e-09
-4.02073e-09
1.29742e-09
-4.16486e-10
3.18608e-11
3.39341e-10
2.27741e-10
6.41133e-10
-1.4732e-10
-7.21553e-10
-9.73415e-11
-2.28209e-10
2.36896e-10
8.86544e-11
-7.98785e-09
-5.55757e-10
8.02528e-09
-7.61352e-09
-1.07577e-09
7.13798e-09
1.58538e-10
-5.60886e-11
-7.73289e-09
7.63044e-09
3.26232e-10
-8.19592e-09
8.02822e-09
-3.84204e-10
1.99618e-09
-1.97092e-09
-1.87686e-10
-2.32311e-09
4.67159e-09
4.09639e-09
-4.68184e-09
-4.08613e-09
-5.74603e-09
7.91594e-11
5.66687e-09
1.97197e-09
-1.34932e-09
-9.4871e-09
-1.78732e-09
-7.55265e-09
1.29131e-09
8.04866e-09
6.82881e-09
-2.50254e-09
1.98679e-09
-6.31307e-09
4.46849e-09
-5.75688e-09
5.58406e-09
3.60265e-09
-1.08777e-09
2.98186e-09
-5.49674e-09
6.12848e-09
2.22922e-10
2.02528e-11
-1.97677e-10
-3.40385e-10
2.97863e-10
-7.95077e-11
1.22029e-10
9.65464e-11
-3.9021e-10
4.23693e-10
-1.30029e-10
2.52158e-11
-1.84776e-10
-1.80301e-11
1.7759e-10
1.93623e-09
-3.35665e-09
-4.96104e-09
4.85273e-09
1.08318e-10
-2.59225e-10
8.6912e-09
1.40296e-10
2.90574e-09
-3.69207e-09
4.57381e-09
-3.78748e-09
-6.23006e-09
3.31517e-10
6.28509e-09
-7.05274e-10
1.94483e-09
-2.01212e-09
-2.42356e-11
-9.33849e-09
8.75566e-09
6.07064e-10
-5.80367e-10
-3.91622e-09
-6.92528e-10
2.45634e-09
-6.48856e-11
-3.85834e-10
2.9696e-09
7.52207e-10
7.88211e-09
2.49234e-10
-3.52773e-10
-7.77857e-09
5.59604e-09
2.46813e-09
-2.68907e-09
1.27595e-09
-2.07637e-09
2.12805e-09
9.20747e-09
5.13486e-10
-9.14167e-09
-5.79281e-10
3.87889e-11
-7.81856e-11
3.82312e-10
-4.79294e-10
-7.9164e-09
9.54788e-09
1.67547e-09
-9.41825e-09
-1.8051e-09
8.99558e-09
-1.77777e-09
2.14345e-09
-9.36127e-09
-2.68002e-10
6.03796e-09
-5.76996e-09
1.03645e-08
-1.33702e-08
3.00569e-09
4.73693e-10
-3.67047e-10
-2.10557e-09
-9.08248e-09
8.54109e-09
-1.82899e-10
2.11451e-09
-1.93161e-09
5.89901e-09
-5.92031e-09
5.3149e-09
-3.91936e-09
-6.76409e-09
5.36856e-09
-1.66123e-10
-6.06311e-09
6.43811e-09
-2.08871e-10
4.9864e-10
5.07103e-09
-4.88317e-09
-6.86494e-10
8.22127e-09
5.89064e-09
-5.66942e-09
-8.44249e-09
1.66235e-10
-1.91671e-10
4.26213e-10
-4.00777e-10
-1.70109e-09
1.32182e-09
-1.22009e-09
1.59936e-09
4.14245e-09
-6.4935e-09
3.03634e-09
-6.8529e-10
7.05974e-09
1.92694e-09
-7.48082e-09
-1.50586e-09
3.48116e-09
-3.84496e-09
5.39002e-09
-5.02622e-09
-1.24483e-09
1.30821e-09
1.18935e-09
-1.25272e-09
-3.30337e-10
7.09685e-10
-8.04212e-09
7.66277e-09
9.57853e-09
6.85889e-09
-1.0223e-08
1.02508e-09
-2.28946e-10
8.45135e-09
2.08424e-10
-5.02209e-09
5.6636e-10
4.2473e-09
1.68638e-09
-1.311e-09
-3.29676e-09
2.92138e-09
-4.27925e-09
-4.36111e-09
7.54085e-10
6.42444e-10
-9.81054e-09
1.005e-08
-8.81923e-10
1.89961e-09
-2.32475e-09
-8.91448e-09
-4.017e-10
6.79224e-11
1.26423e-10
-2.15298e-10
2.53766e-10
-1.64891e-10
-9.12009e-10
9.91301e-10
-7.92924e-11
4.43061e-10
1.3126e-11
-3.59641e-10
-1.1429e-09
8.17124e-09
1.13435e-09
4.55265e-09
-1.92498e-09
7.5476e-09
-1.01753e-08
9.46866e-09
-5.03876e-09
5.14862e-09
-4.33535e-09
4.9879e-09
4.30699e-09
8.67144e-09
-3.50976e-09
1.75864e-09
8.89988e-09
-2.93494e-09
-7.72358e-09
8.84675e-09
-9.30208e-09
1.49726e-09
-1.04193e-09
-8.22037e-09
7.21484e-09
4.13352e-09
-3.12798e-09
-1.46011e-09
7.29947e-09
5.67709e-09
-2.19229e-11
4.33278e-11
-1.36449e-10
1.15044e-10
-4.02544e-10
3.62015e-10
4.54165e-09
-4.50112e-09
-1.26393e-09
1.58277e-09
-1.02411e-09
-1.37183e-10
1.77517e-09
-1.63799e-09
-5.62907e-10
-7.76183e-09
1.00362e-09
7.32112e-09
-1.45085e-10
-5.41788e-09
-6.1311e-09
7.38809e-09
-1.235e-09
-9.86721e-09
1.74501e-09
9.3572e-09
-2.51846e-10
2.53418e-10
-9.89132e-11
3.64387e-10
1.16752e-08
-1.16288e-08
-4.10752e-10
-2.32501e-10
5.57667e-09
-3.90984e-09
-1.43433e-09
-5.01713e-09
-3.36813e-09
4.88675e-09
-7.70025e-09
6.18163e-09
5.43573e-10
-8.68779e-10
8.70045e-09
-8.37524e-09
-6.44928e-09
5.28624e-09
-3.48199e-10
1.24224e-10
-4.06025e-10
5.38437e-10
-1.26575e-09
7.14199e-11
4.83951e-10
-2.7648e-11
-9.23687e-09
2.62354e-09
9.54089e-09
4.68203e-09
-4.49344e-09
5.12631e-09
-1.29947e-10
1.68569e-09
-1.69891e-09
-3.60395e-09
8.43588e-11
4.35621e-10
-9.62864e-11
4.88058e-09
-2.71998e-09
-4.52786e-09
9.7544e-09
1.34782e-09
-2.25548e-09
6.2937e-11
-9.24702e-10
9.93132e-10
-1.31367e-10
-2.5049e-09
-3.91788e-09
4.20902e-09
-2.85126e-10
3.76078e-10
-8.55006e-09
2.57564e-09
7.4433e-09
3.8087e-09
-2.13277e-09
-7.11206e-09
-1.38842e-09
-7.37664e-11
4.73846e-09
-3.27627e-09
-1.1314e-10
-1.39654e-09
1.50968e-09
-4.4197e-09
4.44852e-09
-8.28272e-09
2.00789e-09
-1.81175e-09
8.08657e-09
-7.47151e-09
-1.68055e-09
1.42991e-09
-9.58524e-09
-1.84639e-09
1.84429e-09
9.58735e-09
-2.8563e-10
1.48422e-10
-7.41588e-09
4.66397e-09
-3.20649e-10
-4.34332e-09
-2.69565e-10
-9.54653e-11
3.85227e-11
3.26508e-10
-1.11881e-09
1.03281e-09
-1.14608e-09
1.23209e-09
8.71377e-10
1.48105e-08
-6.47488e-09
-9.20696e-09
-7.29043e-09
-3.95088e-10
1.84434e-10
-3.41025e-09
7.08521e-09
6.53812e-09
6.0914e-10
-6.60503e-10
3.17905e-09
8.16506e-10
5.75884e-09
-1.78876e-09
5.24108e-09
-5.99865e-09
2.54632e-09
-1.96455e-10
-5.35495e-10
9.03723e-09
-9.10453e-09
6.02795e-10
8.76903e-09
8.25363e-10
-9.20676e-09
-3.87627e-10
-1.03672e-10
-8.75364e-09
1.40058e-10
-7.96266e-09
5.18816e-10
7.86579e-09
-4.21953e-10
3.18603e-09
-8.8725e-09
8.97642e-09
4.93922e-09
-2.67004e-09
-1.01074e-08
7.83826e-09
4.09746e-10
-1.44101e-10
9.57365e-11
6.43009e-10
3.01674e-10
-5.25629e-11
-4.15993e-11
1.01779e-08
4.01967e-10
-1.21367e-09
-9.36624e-09
-3.17618e-09
7.3437e-09
-9.2558e-11
9.78637e-11
-7.14128e-11
6.61071e-11
-5.03075e-09
2.36617e-09
3.76154e-09
-1.09697e-09
-7.27923e-09
8.15486e-09
1.93931e-09
6.93035e-09
-3.62703e-09
3.39463e-09
-6.69795e-09
3.1397e-09
-5.60104e-09
-1.81481e-09
4.27615e-09
2.60378e-09
-5.48769e-09
1.22207e-08
1.04848e-08
-8.81429e-09
7.9788e-09
-5.54607e-09
4.41623e-09
-3.9009e-09
4.28233e-11
-7.73351e-11
8.99556e-09
-8.96105e-09
4.93646e-11
-9.18937e-09
-3.2021e-10
9.46022e-09
5.72164e-09
-5.7624e-09
-1.44199e-09
1.48275e-09
9.02305e-10
7.04189e-11
-7.19209e-11
-2.89568e-09
2.41467e-09
5.7571e-10
-9.47081e-11
-5.53564e-09
2.49956e-09
-2.9411e-09
5.97718e-09
1.25746e-09
-1.15261e-09
1.0713e-09
-1.05184e-08
8.30645e-09
1.14069e-09
5.62092e-10
-6.60316e-09
-5.15113e-09
1.11922e-08
-5.91517e-09
-5.59757e-09
7.88967e-09
1.91398e-09
8.97007e-09
-9.52452e-09
-4.65854e-09
4.39848e-09
7.1904e-09
-9.97067e-09
1.03351e-08
3.55397e-09
4.89119e-09
-6.51549e-09
-8.49072e-10
-8.91807e-09
1.11913e-09
-1.50313e-09
-4.45468e-09
-4.93265e-09
3.07714e-09
3.80614e-11
-9.12738e-12
-1.41282e-09
1.38389e-09
-1.0195e-08
2.24356e-10
7.10151e-09
-2.69883e-09
-6.40008e-09
-2.18388e-09
-6.44345e-09
-6.4327e-09
6.16992e-09
9.6652e-11
-1.37263e-09
-9.7492e-09
1.25248e-09
-4.57647e-09
6.23531e-09
4.62907e-09
-2.10443e-10
-4.42192e-10
4.60965e-10
-5.87397e-09
1.28381e-10
5.74559e-09
2.74596e-10
-1.08648e-10
8.66073e-09
-2.33868e-09
-9.74775e-10
-5.3015e-09
4.13805e-09
-8.6539e-09
-1.69917e-09
-7.99723e-09
2.1948e-09
3.31268e-09
4.84007e-09
5.69318e-10
2.04939e-10
-9.51195e-09
-7.65749e-10
1.40955e-09
8.86815e-09
-7.71176e-09
9.16801e-10
6.79496e-09
-4.7553e-09
4.85139e-09
-2.51558e-09
-5.89765e-09
2.46532e-09
5.9479e-09
-3.88287e-09
5.41139e-09
-9.28188e-10
1.11093e-08
-9.254e-09
-4.9882e-09
5.44851e-09
-2.86002e-09
2.39971e-09
9.38929e-09
-8.32024e-10
-1.00174e-08
-1.18699e-09
1.39e-09
-8.91498e-10
8.02182e-09
-7.13032e-09
-4.98137e-09
-3.67568e-09
7.98113e-09
-4.17389e-10
-9.13078e-09
1.98932e-10
1.07795e-08
-3.95005e-09
3.88093e-09
-1.07104e-08
9.37394e-09
2.42038e-10
-2.07453e-10
-1.09351e-10
3.97765e-09
-1.73732e-10
8.04248e-10
-4.60817e-09
-1.15804e-10
1.62512e-10
-3.49345e-11
-4.50702e-09
-3.55462e-09
6.34271e-11
1.50948e-09
-1.53485e-09
-2.13897e-10
-4.59943e-10
6.67461e-10
-6.43665e-09
5.9583e-09
-1.11942e-09
1.59778e-09
1.21034e-09
-5.00152e-09
-3.71137e-10
4.16232e-09
-5.80701e-09
-3.548e-09
7.24944e-09
-3.96653e-10
-7.68267e-11
-4.54663e-10
-9.02612e-09
8.94528e-09
6.45101e-09
-1.47441e-09
-5.73977e-10
1.17645e-09
-9.35475e-09
8.63566e-09
-4.57362e-10
8.36523e-09
-4.9658e-10
-8.16126e-09
2.92609e-10
-5.5644e-09
-2.82366e-09
7.08367e-09
1.30438e-09
3.73719e-09
9.69072e-09
-1.22834e-08
1.04548e-09
2.07249e-10
-1.14063e-09
-1.12106e-10
-8.47452e-09
-1.49763e-11
8.51329e-09
7.5921e-11
-3.59677e-10
-5.63527e-09
4.12145e-09
7.86378e-10
-1.06473e-09
-6.48201e-09
7.64518e-09
-9.84391e-11
-6.41596e-09
5.34881e-09