/*--------------------------------*- C++ -*----------------------------------*\
  =========                 |
  \\      /  F ield         | OpenFOAM: The Open Source CFD Toolbox
   \\    /   O peration     | Website:  https://openfoam.org
    \\  /    A nd           | Version:  8
     \\/     M anipulation  |
\*---------------------------------------------------------------------------*/
FoamFile
{
    version     2.0;
    format      ascii;
    class       volVectorField;
    location    "6.2";
    object      U;
}
// * * * * * * * * * * * * * * * * * * * * * * * * * * * * * * * * * * * * * //

dimensions      [0 1 -1 0 0 0 0];

internalField   nonuniform List<vector> 
5101
(
(0.000669078 0.00102863 0)
(0.000863378 0.00130502 0)
(0.000765122 0.0011737 -1.01035e-23)
(0.000866615 0.00140311 -5.27893e-25)
(0.000732521 0.00113041 -1.33967e-21)
(0.000702037 0.00124588 7.00385e-22)
(0.00073288 0.00120298 9.00302e-23)
(0.000484471 -3.5618e-05 -4.52358e-24)
(0.000722042 0.0012286 9.9441e-25)
(0.000658009 0.00107867 0)
(0.000626584 0.00113812 -8.59652e-22)
(0.000701517 0.00124606 8.44786e-22)
(0.000696361 0.00122103 -1.28856e-23)
(0.000640785 0.00125662 -3.71209e-22)
(0.000795123 0.00148844 8.58348e-22)
(0.000858309 0.00146419 1.13019e-21)
(0.000851239 0.0015219 0)
(0.000906238 0.00140201 0)
(0.000851999 0.0014342 2.70771e-21)
(0.000347555 0.000780647 0)
(0.000765947 0.00124981 0)
(0.000701786 0.00125247 3.76179e-22)
(0.000880338 0.00132281 6.49033e-24)
(0.000696744 0.00122783 5.96888e-22)
(0.000799296 0.00139433 6.69678e-22)
(0.000620856 0.00125995 1.61575e-21)
(0.00085428 0.00147662 1.28648e-21)
(0.000780734 0.00137449 0)
(0.000625663 0.00111965 -1.42209e-21)
(0.000616148 0.00114147 2.79084e-21)
(0.00086442 0.0014224 1.24147e-21)
(0.000653945 0.00102416 -1.00951e-23)
(0.000685829 0.00120112 -5.18399e-22)
(0.000517163 0.000788743 -1.8676e-21)
(0.000800348 0.00122529 -1.4097e-21)
(0.000434396 0.000725052 1.62802e-21)
(0.000696885 0.00133641 1.0311e-21)
(0.000759454 0.00129271 0)
(0.000627384 0.00110241 1.33708e-21)
(0.0010294 0.000400345 6.88457e-22)
(0.000902702 4.91601e-05 1.83839e-22)
(0.000711869 0.00122316 -1.8192e-22)
(0.000865343 0.00146303 0)
(0.000854531 0.00146721 1.01334e-21)
(0.000653365 0.001112 -9.02437e-22)
(0.000827376 0.00127412 7.55815e-22)
(0.000666896 0.00113301 8.51672e-24)
(0.000637986 0.00104949 4.37118e-22)
(0.000690517 0.00121984 1.34288e-23)
(0.000788872 0.00138558 -7.6753e-22)
(0.00077465 0.00141261 0)
(0.000676491 0.00133065 -1.6123e-21)
(0.000763782 0.00125098 0)
(0.000735012 0.00122418 1.13206e-22)
(0.000721582 0.000147185 -7.71149e-25)
(0.000625109 0.0011217 0)
(0.000455902 0.000839947 2.26406e-22)
(0.000203314 0.000621524 3.11053e-22)
(7.87468e-05 0.000348128 2.93566e-22)
(0.000572932 0.0010269 3.48137e-22)
(0.000736712 0.00121656 -2.61759e-22)
(0.000888368 0.00138991 0)
(2.7914e-05 7.97538e-06 0)
(0.00079518 0.00145304 0)
(0.000789227 0.00135748 -1.40222e-21)
(0.000570341 0.00108032 -2.0269e-21)
(0.000707775 0.00119212 3.57835e-22)
(0.000824663 0.00150304 0)
(0.000720873 0.00125806 1.02214e-21)
(0.000968397 6.00571e-05 1.14659e-21)
(0.000702144 0.00124477 -7.05335e-22)
(0.000301704 0.000784908 2.00721e-21)
(5.45396e-05 0.00020542 -1.56043e-21)
(0.000756546 0.00134368 -2.05547e-21)
(0.000612523 0.00108311 5.19076e-22)
(0.000836515 0.000805991 1.17023e-21)
(0.000666035 0.00104401 4.10611e-22)
(0.000408413 0.000768119 0)
(0.000252018 0.000531429 -7.02919e-22)
(0.000702764 0.00124113 -3.17243e-22)
(4.05893e-05 0.000204022 1.89794e-21)
(0.000592012 0.00110138 2.96644e-22)
(0.000593966 0.00107126 0)
(0.00063719 0.00115305 -2.28071e-21)
(0.000630528 0.000201987 3.66274e-21)
(0.000754131 0.00131441 3.92548e-22)
(0.000667593 0.00114192 -4.17391e-22)
(0.000853501 0.00140155 4.70363e-22)
(0.000598337 0.00114577 2.47518e-21)
(0.000873299 0.00150284 5.30632e-22)
(0.00054737 0.000767173 -6.23014e-22)
(0.000701794 0.00118889 0)
(0.000740038 0.00132944 -1.98771e-21)
(0.000796013 0.00138702 -4.03838e-22)
(0.000764346 0.00132345 -1.89889e-21)
(0.000486266 0.000926941 0)
(0.000475657 0.000745831 -3.27511e-21)
(0.000664547 0.00114765 -8.82886e-22)
(6.68741e-05 0.00027759 0)
(0.000731776 0.00140774 -7.17117e-22)
(0.000799925 0.00139175 1.56154e-21)
(0.00100917 0.000202404 -2.33212e-21)
(0.00071947 0.00125117 -3.81479e-22)
(0.000701257 0.00117618 0)
(0.000624194 0.00109664 1.0862e-21)
(0.000284219 0.000720294 -2.14507e-21)
(0.000610041 0.00106385 6.48981e-22)
(0.000727615 0.0011478 -1.02006e-21)
(0.000571448 0.000488119 0)
(0.000371371 0.000712375 -2.50008e-23)
(0.000552153 0.00096013 0)
(0.000554563 0.000962845 0)
(0.000809394 0.00141174 0)
(0.000647947 0.00118819 0)
(0.000680001 0.00114346 3.25806e-22)
(0.000549283 0.000811355 1.3677e-21)
(0.00051966 0.000748446 5.14337e-22)
(0.000669512 0.00112237 2.0601e-22)
(0.000493771 0.000854209 2.13009e-21)
(0.000604033 0.00104648 2.82489e-22)
(0.000720228 0.00125098 2.18842e-22)
(0.000319466 0.000585912 5.40355e-22)
(0.000125333 0.000724022 1.2377e-21)
(0.000650648 0.00105696 1.08745e-21)
(0.000527308 0.00094318 4.72651e-22)
(3.0226e-05 6.5032e-06 1.68504e-22)
(0.000641742 0.00109805 -5.63928e-22)
(0.00071352 0.00121549 3.91536e-22)
(8.06459e-05 0.000194769 -1.35727e-21)
(0.000700589 0.00106228 0)
(0.000759255 0.00132413 2.29751e-21)
(0.000680088 0.00119588 0)
(0.000659773 0.00119518 3.09689e-21)
(0.000351614 0.000138527 -2.47073e-21)
(0.000620842 0.00108798 2.03406e-21)
(0.000848152 0.00155137 0)
(0.00110657 0.00014421 2.74169e-21)
(0.000603853 0.00111539 5.02484e-21)
(0.000547058 0.000964583 8.82772e-23)
(0.000441662 0.000571956 0)
(0.000465348 0.000884868 4.63996e-21)
(0.000454984 0.000985098 1.59256e-21)
(0.00100855 0.000356485 0)
(0.000516426 0.00087332 -1.04263e-21)
(0.00038492 0.000689781 -3.65455e-23)
(0.000672709 0.00123563 -6.04612e-22)
(0.000281898 0.000479859 0)
(0.00072759 0.00127085 1.82854e-23)
(0.000514787 0.00104565 -2.84501e-21)
(0.000290076 0.000658523 -2.33612e-21)
(0.000655228 0.00117032 3.52198e-21)
(0.000816405 2.52113e-05 -2.6142e-21)
(0.000756576 0.00123402 0)
(0.000676643 0.00117368 -3.20185e-22)
(0.000572667 0.00108193 0)
(0.000841164 0.00138574 -3.13095e-21)
(0.000580489 0.00103631 5.99705e-22)
(0.000838881 0.000822783 -1.51767e-21)
(0.000595548 0.00103496 0)
(0.000595593 0.00103483 6.47918e-22)
(0.000683115 0.00119855 4.50007e-23)
(0.000344506 0.000734794 0)
(0.00066642 0.00115251 -4.82187e-22)
(0.000655471 0.00120155 -1.40667e-21)
(0.000595317 0.00110911 -1.21206e-21)
(0.000829049 0.00143202 0)
(0.000495698 0.000847817 -5.1865e-22)
(0.000604914 0.00109614 0)
(0.000863623 0.00144964 3.75494e-22)
(0.000642464 0.000732813 4.30117e-21)
(0.000565809 0.000965165 6.70991e-24)
(0.000628452 0.0010764 -6.52115e-22)
(0.000636598 0.00105114 0)
(0.000644908 0.00118047 1.48822e-21)
(0.000642523 0.00115103 4.30455e-22)
(0.00075513 0.00123717 8.77238e-22)
(0.000720161 0.00125111 4.49123e-22)
(0.000808217 7.35766e-05 -9.39864e-22)
(0.000474478 0.000833066 -7.03409e-22)
(0.00081666 0.00127389 0)
(0.000621834 0.00113747 2.49808e-21)
(0.000631761 0.00104845 4.98114e-23)
(0.000638917 0.00104277 1.70764e-21)
(0.000562395 0.000890006 3.67704e-21)
(0.000396041 0.00072176 -5.1969e-21)
(0.000597074 0.00100798 -1.3975e-21)
(0.000738213 0.000343186 2.66605e-21)
(0.00067537 0.0011235 7.99717e-22)
(0.000692197 0.00120408 -2.08426e-21)
(0.000621092 0.00107762 1.26488e-21)
(0.00053404 0.00105251 1.26441e-21)
(0.000752741 0.00128443 0)
(0.000630351 0.000775851 3.65916e-24)
(0.000859997 0.000867519 -4.43249e-21)
(0.000748566 0.00126027 4.52902e-22)
(0.00086791 0.00151916 -1.80478e-22)
(0.000321422 -0.000337384 7.06698e-22)
(0.000498039 0.00121264 8.24545e-22)
(0.000552893 0.000954746 1.36358e-22)
(0.000697532 0.00125826 -5.02003e-23)
(0.000494728 0.000854356 -1.19459e-21)
(0.00056118 0.00108413 -1.28794e-21)
(0.000757532 0.0014361 -2.69612e-21)
(0.000804918 0.000809584 -1.49781e-21)
(0.000625758 0.000342457 4.00736e-21)
(0.00073202 0.0012745 8.00612e-22)
(0.000981402 0.00109043 1.27614e-21)
(0.000644962 0.00118392 4.10072e-22)
(0.000963162 0.00013607 -5.69216e-21)
(0.000719636 0.0012512 -3.61294e-22)
(0.000766108 0.00143335 7.73594e-22)
(0.000665994 0.00121583 1.81842e-22)
(0.000877309 0.00152001 0)
(0.000823548 0.000601503 -2.75e-21)
(0.000720888 0.00125458 0)
(0.00054291 0.000951163 2.00753e-22)
(0.000603402 0.00109837 3.10646e-21)
(0.000492144 0.000727459 0)
(0.000763579 0.00133127 -2.13767e-22)
(0.000541986 0.000909647 7.94499e-23)
(0.000714311 0.00126513 -1.7195e-22)
(0.000648331 0.00105874 -5.3741e-22)
(0.000603329 0.00100625 -4.07152e-22)
(0.000558324 0.00100202 1.30227e-21)
(0.000448018 0.00133138 -1.09698e-21)
(0.00098978 4.13583e-05 4.63884e-22)
(0.000679313 0.00115392 1.06924e-21)
(0.000599333 0.00109327 -4.71397e-21)
(0.000717973 0.00125092 -5.30301e-22)
(3.29657e-05 2.55706e-06 1.34035e-21)
(0.000128374 0.000757951 1.18855e-21)
(0.000674257 0.00126538 -3.44942e-22)
(0.000698631 0.00124709 7.14924e-22)
(0.000740261 0.00128996 8.01857e-22)
(0.000506421 0.00102211 6.85551e-22)
(0.000646221 0.000276394 -1.8951e-22)
(3.28538e-05 3.64484e-06 -1.99817e-23)
(0.000530781 0.000893711 -5.74275e-22)
(0.000596169 0.00104009 0)
(0.00070392 0.00123033 0)
(0.000716066 0.00124999 0)
(3.73047e-05 2.35147e-06 -2.74642e-21)
(7.15184e-05 0.000119364 1.98773e-25)
(0.000864963 0.00155173 0)
(0.00061625 0.00108176 -1.40318e-21)
(0.000555415 0.000962632 3.50481e-22)
(0.000625312 0.00111697 -4.17053e-23)
(0.000617017 0.000949356 -1.11615e-21)
(0.000649733 0.00112524 -3.02889e-21)
(0.000794544 0.00138724 0)
(0.000554381 0.000964633 3.01463e-21)
(0.000774085 0.00135758 -4.61166e-23)
(0.000739467 0.00128365 4.70477e-23)
(0.000620778 0.00107178 -1.02109e-21)
(0.000596975 0.00105583 -1.67484e-21)
(0.00063596 0.00110526 -1.51864e-21)
(0.000628844 0.00108749 -1.51203e-21)
(0.000653455 0.00114373 0)
(0.000737645 0.00130445 -6.14954e-22)
(0.000988354 0.000342471 -4.6853e-25)
(0.000470327 0.000825126 0)
(0.000730022 0.00127294 8.94608e-22)
(0.000626944 0.00110064 -2.77413e-22)
(0.000649737 0.00112086 -4.75027e-24)
(0.000640095 0.00109782 -2.11911e-24)
(0.000384152 0.000651379 -1.66935e-21)
(0.000625948 0.00109215 2.94797e-22)
(0.000701613 0.00125164 -8.35887e-22)
(0.000779569 0.00136091 0)
(6.15953e-05 0.000669837 0)
(0.000653736 0.00115904 -2.64042e-21)
(0.000677786 0.00119227 -6.40404e-22)
(0.00107473 0.000829027 3.06476e-21)
(0.000848871 0.00147502 0)
(0.000273225 0.000406671 -2.90098e-21)
(0.000867221 0.00110739 -1.97294e-21)
(0.00051853 -0.000486604 -1.48275e-21)
(0.000532938 0.000784652 0)
(0.00071467 0.00124789 -7.52608e-22)
(0.000717498 0.00124414 -1.62783e-22)
(0.000600455 0.00102736 -8.83206e-22)
(0.000667855 0.000992567 0)
(0.000656118 0.00115882 0)
(0.000676666 0.0014577 -1.8578e-21)
(0.000575814 0.000993984 -4.32309e-21)
(0.000700467 0.00126111 1.16066e-21)
(0.000615056 0.00113079 -4.47499e-21)
(0.000487051 0.000841233 5.53677e-22)
(0.000822198 0.00144553 5.89329e-22)
(0.000462787 0.00112445 -2.35036e-21)
(0.000569099 0.000981334 -1.90456e-21)
(0.000511499 0.00116279 -2.73047e-22)
(0.000621424 0.00109325 1.92019e-21)
(0.000681172 0.000627588 4.18327e-21)
(0.000486851 0.000852925 1.16143e-22)
(3.57889e-05 3.12959e-06 -3.9467e-23)
(0.000713873 0.00118006 -2.39299e-23)
(0.000860105 0.00149672 -4.72506e-22)
(0.00070902 0.00124406 8.94991e-22)
(0.000585685 0.00101474 3.23702e-21)
(0.000996627 0.000340439 -5.02951e-22)
(0.000116556 0.000784561 7.84686e-22)
(0.000756191 0.00132576 -2.39494e-21)
(0.00072784 0.00126306 -1.63209e-24)
(0.000446592 0.000905579 4.15532e-23)
(0.000562774 0.00115332 8.01136e-22)
(0.000633906 0.00105185 -8.71222e-22)
(0.000277044 0.000727552 1.431e-21)
(0.000701072 0.00118535 1.79044e-23)
(0.000640607 0.00111202 -2.26208e-21)
(0.000702046 0.00114935 -7.21241e-22)
(0.00074935 0.00133739 -4.04283e-23)
(0.000911677 0.00160142 0)
(0.000859989 0.00149966 6.25791e-22)
(0.000489856 0.000841689 2.73204e-22)
(3.61036e-05 1.67796e-06 0)
(0.000626968 0.00103281 -9.48429e-24)
(0.000266038 0.000898998 -2.01733e-22)
(0.000486906 0.000848442 2.49382e-21)
(0.000913311 0.000566285 2.27362e-21)
(0.000686422 0.00123381 -2.38859e-21)
(0.000609919 0.00133617 -9.72863e-22)
(0.000562818 0.000772576 7.73315e-22)
(0.000719765 0.00125478 -9.91853e-22)
(0.000865255 0.00145213 3.24518e-22)
(0.000849276 0.00149201 0)
(0.000539242 0.000496756 0)
(0.000649025 0.00114002 2.40487e-21)
(0.000423786 0.0010792 -2.28722e-21)
(0.000727192 0.00124392 3.26251e-22)
(0.000911408 0.00163058 -8.78812e-23)
(0.000776459 0.00134622 0)
(0.000962132 0.000391836 -1.44167e-21)
(0.000196179 0.000652766 2.23313e-23)
(0.000882342 0.00147794 2.94774e-22)
(0.000319016 0.000114956 -2.41975e-21)
(0.00061377 0.00107061 0)
(0.000733511 0.00121735 0)
(0.000611481 0.0010983 5.67709e-21)
(0.000634533 0.00109321 -2.86261e-21)
(0.000688925 0.00128186 5.27303e-22)
(0.000774672 0.0013452 0)
(0.000743607 0.00124742 2.85265e-22)
(0.000750214 0.00133687 8.0344e-24)
(0.00076397 0.00132937 -4.65953e-22)
(0.000652251 0.00109714 1.87388e-21)
(0.000520929 0.000847544 -7.14689e-22)
(0.000626356 0.00104029 6.04531e-22)
(0.00083894 0.00148553 1.21149e-21)
(0.000562383 0.000461667 -8.62969e-22)
(0.000650471 0.000546152 -1.21937e-21)
(0.00043076 0.000786097 -8.04875e-22)
(0.000655488 0.00113696 0)
(0.000957596 0.00161076 -1.45592e-22)
(0.000579726 0.00106632 -2.32118e-22)
(0.000634777 0.000844511 -1.43165e-22)
(0.000483704 0.000766857 0)
(0.000614398 0.00116744 2.77888e-23)
(0.000703384 0.000758859 0)
(0.00087921 0.00159047 -6.00528e-23)
(3.62891e-05 0.000171517 3.22042e-21)
(0.000900451 0.00154455 4.58632e-22)
(0.000898654 0.000168366 1.69493e-21)
(0.000728145 0.00121015 0)
(0.000445024 0.000836473 -5.45709e-22)
(0.00086642 0.00151637 -7.24318e-22)
(0.000600079 0.00114319 -1.31921e-21)
(0.000573101 0.00110808 2.63556e-22)
(0.000286119 0.000695669 -1.69564e-21)
(0.00055673 0.000952535 -6.75976e-22)
(0.000762571 0.000948404 -1.06412e-21)
(0.000455409 0.000904978 2.41528e-21)
(0.000637396 0.00117838 1.26145e-21)
(0.000798906 0.00140108 -9.0431e-22)
(0.000607955 0.00109322 1.12184e-21)
(0.000604886 0.00109275 -3.16701e-21)
(0.000506989 0.000917109 1.32767e-21)
(0.00082426 0.00147923 3.22357e-22)
(0.000600137 0.00106557 6.50801e-22)
(0.000773707 0.00137761 2.2346e-21)
(0.000641309 0.0011446 1.23064e-23)
(0.000615175 0.00110706 2.80968e-21)
(0.000604967 0.0010709 -1.42237e-21)
(0.000618672 0.00108496 0)
(0.000743051 0.00130527 -3.94093e-22)
(0.000819279 0.00145763 -1.27964e-23)
(0.000597268 0.00105812 0)
(0.000778393 0.00136193 0)
(0.000639463 0.0011264 2.68205e-21)
(0.000739286 0.00129377 -3.6814e-22)
(0.000610037 0.00108571 -2.36039e-21)
(0.000616451 0.00108026 -1.91291e-21)
(0.000809781 0.00145204 -2.48254e-22)
(0.000780879 0.00135562 -9.61121e-22)
(0.000739352 0.00128631 -6.34005e-22)
(0.000779733 0.0013541 8.6914e-22)
(0.000776266 0.00135477 7.81449e-22)
(0.000863455 0.00149837 1.95833e-21)
(0.000620187 0.000307944 -2.1617e-21)
(0.000597197 0.00100685 1.30433e-21)
(0.000676487 0.00120796 -3.26678e-21)
(0.000327966 0.000589182 7.68994e-22)
(0.000754141 0.00127775 -5.12585e-22)
(0.000678033 0.00115561 1.01406e-21)
(0.00070979 0.00126127 -1.01793e-21)
(0.000919025 0.00158316 0)
(0.00084716 0.00149534 0)
(0.000714218 0.000780507 2.18552e-21)
(0.000640941 0.00109348 2.07885e-21)
(0.000514947 0.000200526 -5.01596e-21)
(0.00035067 0.000629418 0)
(0.00074888 0.00127688 4.97405e-22)
(0.000987647 0.000302353 -4.27801e-24)
(0.000417975 0.000672002 -1.90747e-21)
(0.000863008 0.00149177 1.75289e-22)
(0.000909978 0.00158087 -1.61313e-22)
(0.000612468 0.00113193 2.61509e-23)
(0.000622461 0.00107674 -6.73405e-22)
(2.14178e-05 -2.86683e-05 0)
(0.000450342 0.000875651 2.3974e-22)
(0.000443049 0.000863219 -2.70437e-22)
(0.000499055 0.000858476 -2.45835e-21)
(0.000490231 0.000883967 2.60094e-22)
(0.000548543 0.00111231 -6.5073e-23)
(0.000673429 0.00117679 -1.19929e-21)
(0.000775897 0.0013435 -1.48022e-22)
(5.49876e-05 -3.38488e-05 5.47743e-25)
(0.000630808 0.00104934 0)
(0.000708203 0.0012316 0)
(0.000604872 0.00110351 -1.99499e-21)
(0.000873198 0.00150247 4.09727e-22)
(0.000598912 0.00110362 2.62821e-23)
(0.000655413 0.00121778 0)
(0.00127845 0.0012499 -1.13966e-21)
(7.53921e-05 0.00046656 6.80096e-24)
(0.000552966 0.000940476 7.02721e-22)
(0.00126103 0.000517101 0)
(0.000549606 0.00086541 0)
(0.000543268 0.00085209 -9.68614e-22)
(0.000614403 0.00106146 -1.16032e-22)
(0.000694132 0.00115061 -3.10514e-22)
(0.000686144 0.00113012 0)
(0.000806161 0.00150565 5.65671e-23)
(0.00077989 0.00139843 -1.74428e-21)
(0.000736534 0.00130672 -6.30283e-22)
(0.000603707 0.00107382 -1.34312e-21)
(0.000383442 0.000637425 0)
(0.00091629 0.00161856 8.5653e-23)
(0.00074958 0.00130602 -1.86097e-21)
(0.000646149 0.00114284 0)
(0.000607742 0.00109304 -1.12384e-21)
(0.000616807 0.00111044 -8.61544e-22)
(0.000622191 0.00109103 -1.71784e-21)
(0.000652172 0.00115261 0)
(0.000643538 0.00117359 -1.04262e-21)
(0.000569049 0.00105845 -2.07734e-22)
(9.11135e-05 0.000524706 -8.95703e-24)
(0.0005049 0.00130957 6.16706e-22)
(0.00156939 0.000482956 9.79383e-22)
(0.000763353 0.00132846 5.06713e-22)
(0.000727803 0.00128316 -9.55701e-22)
(0.000726681 0.00120467 1.08106e-21)
(0.000297754 0.000705901 -2.38447e-21)
(0.00073713 0.00142872 2.73567e-23)
(0.000569729 0.000473417 0)
(0.000419811 0.000764587 -8.7167e-22)
(0.000799231 0.00138865 0)
(0.000776628 0.00135383 5.34042e-22)
(0.000596339 0.00102814 -3.23331e-22)
(0.000912352 0.00161729 -8.42314e-23)
(0.000634707 0.00112181 -4.46806e-23)
(0.000625206 0.00110346 -1.94295e-21)
(0.000406361 0.000593892 -1.0237e-21)
(0.000634129 0.00115609 2.23841e-21)
(0.000703368 0.00115924 0)
(0.000137939 0.000367225 -1.01092e-21)
(0.000713496 9.99159e-05 2.61052e-24)
(0.000602096 0.000517672 -4.74662e-21)
(0.000733521 0.00127733 8.92706e-22)
(0.0007357 0.00120966 0)
(0.000763686 0.00133497 1.89811e-22)
(0.000762462 0.00132816 5.43791e-22)
(0.000974195 0.000177109 -1.61623e-21)
(0.000466299 0.000559804 -2.34654e-21)
(0.000424982 0.000716973 -2.4842e-21)
(0.000811324 0.00154413 8.05153e-22)
(0.000636132 0.00110224 -1.66604e-22)
(0.000683946 0.0012507 -1.60292e-21)
(0.000631333 0.00104712 -1.8009e-21)
(0.00079646 0.00134442 8.90835e-22)
(0.000731125 0.00120561 -4.83613e-22)
(0.000150135 0.000729538 0)
(0.000737972 0.00126866 -1.56488e-23)
(0.000653314 0.00131239 -2.97882e-23)
(0.000399304 0.000745698 -8.97809e-22)
(0.000866221 0.00148974 -1.64235e-21)
(0.000331569 0.000604216 1.68761e-22)
(0.000613566 0.00108027 2.99347e-22)
(0.000168256 0.00085925 0)
(0.000654786 0.00109856 -3.85582e-22)
(3.75151e-05 0.000232198 0)
(0.000676579 0.00114618 -9.31201e-22)
(0.000668433 0.00115298 -8.91205e-22)
(0.000651123 0.00112889 -6.84236e-22)
(0.000843023 0.00148352 1.13391e-22)
(0.000679373 0.00113101 5.22609e-22)
(0.00107783 0.000176075 -9.69476e-24)
(0.000702772 0.00122153 0)
(0.000621754 0.00100424 -5.39281e-22)
(0.00075887 0.00127288 0)
(0.000420133 0.000744131 2.31634e-21)
(0.000673392 0.00115776 2.14071e-21)
(0.000722227 0.00129303 -3.22286e-22)
(0.00064485 0.00112297 1.9352e-21)
(0.000590902 0.00105384 2.96912e-22)
(0.000600099 0.00104899 1.04618e-21)
(0.000604771 0.00105627 8.69014e-22)
(0.000736778 0.00128955 -4.70966e-23)
(0.000610988 0.00105971 -5.01094e-22)
(0.000669945 0.00118349 7.88078e-22)
(0.000659493 0.00113808 0)
(0.000530392 0.00124843 -2.97742e-25)
(0.00072229 0.00127799 1.67488e-21)
(0.00093487 0.00158727 -4.27131e-22)
(0.000736888 0.00130069 0)
(0.000401897 0.000651318 1.13503e-21)
(0.000397371 0.000639255 0)
(0.000608442 0.00109955 -7.05257e-22)
(0.000581075 0.000271446 1.29436e-21)
(0.000176066 0.000722944 1.74858e-21)
(0.000496161 0.000989381 5.21528e-22)
(0.000608274 0.00101021 1.13557e-22)
(0.000760244 0.00132803 0)
(0.000646862 0.00119583 2.23162e-22)
(0.00061887 0.00108904 1.24796e-21)
(0.000674694 0.00122089 -1.52783e-21)
(0.000665281 0.00118162 -2.10565e-21)
(0.000322721 0.000625102 4.26876e-22)
(0.000819262 0.00141206 -9.93261e-22)
(0.000652695 0.00030847 0)
(0.000709832 0.00123136 1.60358e-22)
(0.000656351 0.00115694 6.30352e-22)
(0.00059075 0.00101896 2.29054e-21)
(0.000394018 0.000674341 -9.94694e-22)
(0.000388572 0.000667831 -6.18345e-22)
(0.000389542 0.00066306 0)
(0.00039369 0.000658305 4.62586e-22)
(0.000392137 0.000653195 -5.43627e-22)
(0.000351579 0.000574457 0)
(0.000388718 0.000661503 7.79445e-22)
(0.000381532 0.000634138 9.78889e-22)
(0.000393018 0.000647945 2.40623e-21)
(0.000382105 0.000622141 3.36148e-21)
(0.000433552 0.000702964 -8.38722e-22)
(0.000411652 0.000681038 -3.81849e-23)
(0.000429175 0.000773959 1.96884e-21)
(0.000659646 0.00114974 7.47282e-22)
(0.000742637 0.00127099 -7.13339e-22)
(0.000676476 0.00115748 -8.91483e-22)
(0.000751649 0.00134065 1.06967e-21)
(0.000294116 0.000563086 0)
(0.000333354 0.000898975 1.67204e-21)
(0.000581958 0.00033738 -1.83796e-21)
(0.000714814 0.00127871 9.26871e-22)
(0.000362898 0.00123725 -1.19095e-21)
(0.000863428 0.00149114 -2.06066e-22)
(0.000746218 0.00135896 -2.69233e-22)
(0.000315347 0.000556799 3.94706e-21)
(0.0007558 0.00129305 7.52017e-22)
(0.000630657 0.00105863 -5.54096e-22)
(0.000867606 0.00150365 -3.26082e-22)
(0.000591341 0.00104008 1.57699e-23)
(0.000755932 0.00129667 1.09795e-21)
(0.000728858 0.00120392 1.03367e-21)
(0.000337054 0.0011038 -7.90163e-22)
(0.000399582 0.00071838 -2.93322e-22)
(0.000773104 0.00134474 -1.43153e-22)
(0.000548271 0.000984001 0)
(0.000604841 0.000869301 -1.90937e-21)
(0.000582958 0.0012344 -8.35421e-22)
(0.000533589 0.000438958 0)
(0.000704975 0.00122423 4.2435e-22)
(0.000873025 0.00160131 5.38417e-22)
(0.000896456 0.00164909 -6.44281e-22)
(0.000638514 0.00114152 0)
(0.000388825 0.000993152 8.5509e-22)
(0.000806122 0.000101084 1.83921e-21)
(0.00063247 0.00101104 -9.22324e-22)
(0.000799638 0.00145434 -4.42141e-22)
(0.000463849 0.000780148 0)
(0.00044338 0.000748336 -4.6963e-23)
(0.000395377 0.000667845 2.78421e-21)
(0.000373488 0.000640036 -4.64169e-21)
(0.000385752 0.000646493 1.53811e-21)
(0.000378469 0.000629243 -1.09211e-23)
(0.000460482 0.000781541 2.90595e-22)
(0.000394638 0.000669357 3.07854e-21)
(0.000415343 0.000687195 -3.41257e-23)
(0.000379441 0.000615481 5.02683e-22)
(0.000295155 0.000747803 1.56281e-24)
(0.00053836 0.000970493 5.12981e-22)
(0.000516771 0.000766709 -9.20901e-22)
(0.00086211 0.00138235 3.92189e-21)
(0.000356755 0.000700685 2.26102e-24)
(0.000759062 0.00132726 7.72866e-22)
(0.000790113 0.00134424 9.1905e-22)
(0.000407813 0.000665449 3.14578e-21)
(0.000438522 0.000771133 -1.14489e-21)
(0.000493023 0.000821622 0)
(0.000712652 0.00123484 2.94648e-22)
(0.000707784 0.00120036 2.31023e-22)
(0.000399753 0.000650719 -3.27049e-21)
(0.000398909 0.000705793 3.01704e-22)
(9.39695e-05 -9.41864e-05 -3.42342e-22)
(7.66653e-05 0.00011624 1.39268e-21)
(0.000679512 0.00150027 -1.06139e-21)
(0.00065186 0.000488533 0)
(1.56302e-05 6.47138e-05 0)
(0.000395881 0.000740033 4.6862e-22)
(0.000696985 0.00122085 -1.82279e-21)
(0.000655483 0.00116694 0)
(2.64827e-05 1.36334e-05 0)
(0.000730311 0.00120623 8.52096e-24)
(0.000683187 0.000785835 2.10499e-22)
(0.000659671 0.00111378 0)
(0.000399527 0.000663 9.93675e-22)
(0.000493904 0.00102098 -1.67165e-21)
(0.000350757 0.000620436 0)
(-7.92556e-06 0.00110504 -1.48659e-21)
(0.000689627 0.00115245 1.04793e-21)
(0.000832582 0.00143569 5.02336e-22)
(0.000810166 0.00141138 -1.43441e-21)
(0.000762148 0.00134825 1.41124e-21)
(0.000925845 0.00157351 3.0883e-22)
(0.000815779 0.00142632 7.79441e-22)
(-0.000283805 0.000459902 0)
(0.000411193 0.000690911 -2.12426e-21)
(0.00038867 0.000671088 -1.3526e-21)
(0.000364237 0.000617147 1.08326e-21)
(0.000442129 0.000745556 -5.17371e-22)
(0.000362974 0.000622456 0)
(0.000363203 0.000617652 0)
(0.000371101 0.000610611 -6.28408e-22)
(0.000447009 0.000743477 -5.46486e-22)
(0.000677541 0.00103399 0)
(0.000341424 0.000613226 1.4186e-21)
(0.000844619 0.00143692 -1.38445e-21)
(0.000568135 0.000983921 -1.36204e-21)
(0.000742516 0.00123583 7.91051e-22)
(0.000797708 0.00132399 -4.15456e-22)
(0.000260186 0.000643881 0)
(0.000799042 5.34849e-05 -2.1445e-21)
(0.000854439 0.00150486 1.92964e-21)
(0.000765646 0.00132025 -1.70035e-22)
(3.41462e-05 5.51295e-07 -1.21135e-21)
(0.000733515 0.0011013 -2.62641e-21)
(0.000632884 0.00108823 -3.04015e-23)
(0.000660601 0.00124131 2.41889e-22)
(0.000814447 0.001436 0)
(8.73482e-05 -0.000165114 0)
(0.000204454 0.000593964 -7.39933e-22)
(0.000759646 0.00132541 1.64901e-22)
(0.000672522 0.00118585 3.63796e-21)
(0.000653407 0.00114352 -7.11954e-22)
(0.000435606 0.0008968 -1.05432e-21)
(0.000609687 0.00105621 -5.38116e-22)
(0.000737484 0.00128512 9.13128e-22)
(0.000423458 0.000781611 -7.89667e-22)
(0.000402228 0.000763051 -1.22121e-21)
(0.000744007 0.0012778 9.89214e-22)
(0.000572607 0.00121187 2.96905e-21)
(0.000696004 0.00124026 -1.68358e-21)
(0.000788909 0.00132233 -9.42783e-22)
(0.000668742 0.00115236 -6.86973e-22)
(0.000751294 0.00132967 0)
(0.000726844 0.00129462 -3.25169e-23)
(0.000606302 0.00105953 4.88891e-22)
(0.000601844 0.00105053 0)
(0.000588635 0.00105174 -9.51251e-22)
(0.000630517 0.0011548 0)
(0.00060533 0.00107474 2.62249e-21)
(0.00063883 0.00112775 -1.25102e-21)
(0.000620384 0.0011029 0)
(0.000172741 0.000548472 -5.43132e-21)
(0.00127947 0.000920068 -1.33422e-21)
(0.000458656 0.000878212 -5.13794e-22)
(0.000411071 0.000419845 0)
(2.7394e-05 5.17879e-05 0)
(0.000623364 0.0010918 -2.62599e-21)
(0.000673347 0.00121441 -1.44094e-21)
(0.00066055 0.00116275 -7.34066e-22)
(0.000791204 0.00135429 -4.2201e-22)
(0.000650354 0.00116735 -6.18185e-22)
(0.000864103 0.00161619 -3.06314e-22)
(0.000563386 0.00104356 -1.34486e-21)
(0.000814618 0.00141926 -7.19633e-22)
(0.000667901 0.00117215 2.02944e-22)
(0.000594206 0.000903185 0)
(0.000762272 0.00135591 -2.4976e-22)
(0.000588204 0.00106649 -3.71319e-22)
(0.000814945 0.00153969 -7.47361e-22)
(0.000671939 0.00116503 -1.42171e-22)
(0.000615135 0.00107874 -3.76837e-22)
(0.000565841 0.000694364 5.02563e-23)
(0.00063251 0.00111368 -2.04167e-21)
(0.000534782 0.00097423 0)
(0.000723059 0.00126105 -8.75991e-24)
(0.000577476 0.00120278 -1.87379e-23)
(0.000779311 0.00147155 1.37808e-21)
(0.000664147 0.00117754 -3.75336e-22)
(0.000497361 0.000925897 -7.86403e-22)
(3.42481e-05 7.89064e-06 1.1667e-21)
(0.000706915 0.00121386 -4.28776e-22)
(0.000903533 0.00153704 -1.93446e-22)
(0.000497255 0.000859355 -1.10833e-21)
(0.00040493 0.00112323 -2.08341e-21)
(0.000634415 0.00105054 -5.85442e-22)
(0.000734924 0.00128438 1.00626e-21)
(0.000781664 0.00135197 -1.01348e-22)
(0.000644702 0.00103319 5.56978e-22)
(0.000644536 0.00114057 1.77678e-22)
(0.000662881 0.00118556 2.3643e-21)
(0.000660815 0.00114402 -1.58381e-21)
(0.000600043 0.00106718 -5.14678e-22)
(0.000830625 0.00151817 -1.99752e-21)
(0.000237572 0.000758949 1.39719e-21)
(0.000768782 0.00135577 -3.71068e-22)
(0.000734983 0.00129363 0)
(0.000654389 0.00114431 9.49799e-22)
(0.000618787 0.00107883 1.05216e-21)
(0.000775976 0.00135554 3.41671e-22)
(0.000628215 0.0010877 2.41708e-21)
(0.000631057 0.00110444 -2.38419e-21)
(0.000852861 0.0014976 8.02254e-22)
(0.000926115 0.00158705 -4.14973e-22)
(0.000624701 0.00105597 -2.73322e-21)
(0.000667608 0.00113671 2.1983e-21)
(0.000405147 0.000750142 0)
(0.000798325 0.00140292 -1.6628e-21)
(0.000722383 0.00130164 2.82553e-23)
(0.00105398 2.77528e-05 1.01383e-21)
(0.00100965 0.000692324 1.33788e-21)
(0.000861621 0.00147824 1.81369e-22)
(0.000733776 0.00120915 -4.84268e-22)
(0.000617677 0.0010563 -8.09946e-22)
(0.000649735 0.00116897 3.45511e-22)
(0.000599648 0.00105617 0)
(0.000627647 0.00141102 -2.8372e-21)
(0.000800728 0.00140484 7.80281e-22)
(0.00092891 0.00159615 -7.21436e-24)
(0.000503417 0.000856171 1.21461e-21)
(0.00026663 9.67489e-05 0)
(0.000826261 0.00140649 1.74773e-21)
(0.000448051 0.00074503 2.1211e-22)
(0.000921247 0.00157109 -6.11251e-22)
(0.000810103 0.00142708 1.06199e-21)
(0.000741473 0.00121745 0)
(0.000743825 0.00122119 0)
(0.000441324 0.000851886 -1.73606e-21)
(0.000638287 0.00110541 -2.91569e-22)
(0.000726554 0.00120791 0)
(0.000720601 0.00121215 -1.59322e-21)
(0.000546038 0.000635357 1.61285e-21)
(0.0009312 0.00160715 9.24238e-22)
(0.000728445 0.00117797 2.81092e-21)
(0.000203208 0.0011732 -2.1255e-21)
(0.000799362 0.00139425 1.18139e-21)
(0.000716074 0.00115882 -5.67542e-22)
(0.000676703 0.000877844 3.12953e-22)
(0.000707477 0.00117533 1.39175e-21)
(0.000474164 0.000931433 -1.95045e-21)
(0.000568291 0.000910766 9.39557e-22)
(0.00076735 0.00151411 8.27121e-22)
(0.000799585 0.00138068 9.20081e-22)
(0.000611542 0.00104654 -1.2927e-22)
(0.000535787 0.000918627 1.34155e-22)
(0.000645717 0.00117377 0)
(0.000525957 0.000912979 1.4423e-22)
(0.000258217 0.000492043 -1.89123e-24)
(0.000628702 0.00102609 -1.2151e-21)
(0.00072787 0.000843281 -9.66874e-22)
(0.000753136 0.001298 -1.36472e-22)
(0.000507781 0.000489184 -3.92804e-22)
(0.00062964 0.00104544 -6.26051e-22)
(0.000683735 0.00115558 -2.6611e-22)
(0.00055081 0.00111739 1.45701e-21)
(0.000783023 0.00134983 1.30538e-21)
(0.00104698 9.46937e-05 0)
(0.0006625 0.000341977 -5.05906e-21)
(0.000564075 0.00113414 -3.70902e-21)
(0.000432964 0.00131986 -1.82578e-21)
(0.000793214 0.00130488 6.09809e-24)
(0.000402099 0.000682537 -1.96e-22)
(0.000658999 0.00118101 8.04313e-22)
(0.000544462 0.0010441 1.84939e-23)
(0.000395091 0.000737293 1.42449e-21)
(0.000391351 0.000731804 2.01775e-21)
(0.000327507 0.000583496 9.08206e-22)
(0.000439281 0.000637979 3.11114e-22)
(0.000883298 0.00150562 -4.31438e-22)
(0.000641676 0.00115004 1.23916e-21)
(0.000810211 0.00148273 0)
(0.000664094 0.00113736 0)
(9.97599e-05 0.000154269 -9.35436e-22)
(0.000242043 0.000550279 1.57494e-21)
(0.000765516 0.00135584 -3.06367e-22)
(0.000738564 0.0012942 -1.5345e-21)
(0.00065364 0.00114529 0)
(0.000616088 0.00108682 1.07275e-21)
(0.000780259 0.00135673 8.18997e-22)
(0.000627981 0.00109162 -8.10382e-22)
(0.000627621 0.00110886 0)
(0.000660167 0.00115082 0)
(0.000659605 0.001189 -7.8539e-22)
(0.000589474 0.00107053 4.32931e-22)
(0.000798232 0.0014061 -2.48144e-22)
(1.42008e-05 1.56316e-05 -8.36725e-22)
(0.000773053 -0.000187204 7.71329e-22)
(0.000797723 0.00147225 -1.64117e-21)
(0.000727702 0.00120549 1.07771e-21)