/*--------------------------------*- C++ -*----------------------------------*\
  =========                 |
  \\      /  F ield         | OpenFOAM: The Open Source CFD Toolbox
   \\    /   O peration     | Website:  https://openfoam.org
    \\  /    A nd           | Version:  8
     \\/     M anipulation  |
\*---------------------------------------------------------------------------*/
FoamFile
{
    version     2.0;
    format      ascii;
    class       volVectorField;
    location    "6.2";
    object      U;
}
// * * * * * * * * * * * * * * * * * * * * * * * * * * * * * * * * * * * * * //

dimensions      [0 1 -1 0 0 0 0];

internalField   nonuniform List<vector> 
4320
(
(0.000631599 0.00169159 3.44872e-22)
(0.00046786 0.00120484 1.14486e-22)
(0.000451777 0.00112867 0)
(3.43945e-05 6.45789e-07 6.29376e-22)
(0.000659799 -1.84396e-05 0)
(0.000661991 0.00180619 0)
(0.000704607 0.00189442 9.38568e-23)
(0.000682537 0.00189089 5.80552e-24)
(0.000139703 0.00155204 -8.64823e-22)
(0.00058501 0.00166774 -2.14344e-22)
(0.000664289 0.00178795 -2.25632e-22)
(0.000661981 0.00177174 -1.26101e-24)
(0.000657163 0.00178365 2.2222e-22)
(0.000596122 0.00166684 9.67757e-22)
(0.000836914 0.000809157 1.46178e-21)
(0.000663503 0.00177515 4.99359e-22)
(0.000355917 0.00105251 -2.24597e-21)
(0.000272239 0.000661809 -3.15094e-21)
(0.000665135 0.00178518 -3.64029e-24)
(0.000664743 0.00177817 0)
(0.000666303 0.00177986 6.77398e-22)
(0.000663832 0.00188857 5.44429e-22)
(0.000422724 0.00051901 3.43905e-21)
(0.000623399 0.00176772 -2.55723e-22)
(0.00061921 0.00168364 7.62141e-22)
(0.0007064 0.00189787 1.6545e-21)
(0.000649953 0.00171093 1.85225e-21)
(0.000668595 0.00173072 -1.79065e-22)
(0.000626934 0.00176257 -5.5038e-22)
(0.000484662 3.28394e-05 1.24287e-21)
(0.00062535 0.00173422 -4.52567e-22)
(0.000669111 0.00188765 0)
(0.000668576 0.00189001 5.25361e-24)
(0.00057467 0.00167792 -2.16881e-21)
(0.000421903 0.00118927 -2.53984e-23)
(0.000640423 0.00189026 1.8688e-23)
(0.000666549 0.00178028 -6.34201e-22)
(0.000670736 0.00178749 -1.52297e-22)
(0.0011032 6.47975e-06 1.53698e-22)
(0.000402248 0.00113363 9.63549e-22)
(0.000629169 0.0017446 -1.98062e-22)
(0.00064713 0.00173964 4.1589e-22)
(0.00045731 0.000165662 0)
(0.000609222 0.00154105 1.76655e-21)
(7.94849e-05 0.000732613 6.71894e-22)
(0.000648784 0.00183207 4.11521e-22)
(0.000398226 0.00196111 3.03278e-23)
(0.000623393 0.00171078 -1.07553e-22)
(7.17919e-05 0.000876521 -2.95582e-22)
(0.000661959 0.0017676 0)
(0.000647074 0.00176956 0)
(0.000656878 0.00182687 2.83283e-22)
(0.000746852 -8.23768e-05 6.0593e-22)
(0.000127032 0.000971098 0)
(0.00011618 0.00165046 -1.56601e-21)
(0.000646495 0.00172011 -2.53545e-22)
(0.000578648 0.00167244 2.36793e-22)
(0.000595754 0.00170984 -2.37956e-21)
(0.0002915 0.00165078 -9.56969e-24)
(0.000259787 6.73923e-05 4.32393e-22)
(0.000665842 0.00177788 -2.86791e-22)
(0.000607272 0.00179039 -3.09518e-22)
(0.000610234 0.00176449 1.82286e-22)
(0.000663417 0.00177258 -4.39472e-22)
(0.000904902 -0.000433251 1.18544e-22)
(0.000621673 0.00178423 0)
(0.000435456 0.000155666 4.27416e-21)
(0.000613759 0.00168922 6.84456e-22)
(0.000528274 0.00155081 2.69847e-22)
(0.000618715 0.00187576 -8.74154e-23)
(0.000475524 0.00114085 -3.47624e-25)
(0.000681241 0.00189768 1.5341e-21)
(0.000641999 0.00161358 6.57874e-22)
(0.000642932 0.00164154 5.96527e-23)
(0.000658464 0.00176194 0)
(0.000655787 0.00169234 -2.69118e-22)
(0.000456995 0.00118553 -7.1638e-23)
(0.000405025 0.000886368 -1.71069e-21)
(9.92457e-05 0.000236619 9.04625e-24)
(0.000809092 -0.000102726 0)
(0.000645561 0.00176947 -1.17891e-22)
(0.00039542 0.00113097 1.44172e-21)
(0.00040976 0.00115202 -7.48623e-22)
(0.000661555 0.00178604 -6.48637e-22)
(9.13431e-05 0.000212996 -2.31539e-21)
(0.000413576 0.00110997 3.10161e-23)
(9.56538e-05 0.000172959 -2.24921e-21)
(0.000643459 0.00168963 7.6936e-22)
(0.00105921 4.67006e-05 0)
(0.000641575 0.00190309 1.40828e-21)
(0.000883011 -0.000208369 -1.98858e-22)
(0.000708078 0.00189116 0)
(0.00127112 0.000189256 3.69719e-21)
(0.000194128 -9.51372e-07 -2.1453e-21)
(0.000608615 0.00169483 -1.71348e-22)
(0.000607655 0.00173755 3.75159e-24)
(0.00039686 0.00112956 6.24093e-24)
(0.000664371 0.00177579 1.52638e-22)
(0.000669302 0.00178676 4.13095e-24)
(0.00100381 0.000822917 -1.11136e-21)
(7.7356e-05 0.00017184 0)
(0.000654693 0.0017558 0)
(0.000649806 0.00190215 3.68499e-22)
(0.000450201 0.00120341 -1.39988e-21)
(0.000439709 0.00177411 -4.25831e-24)
(0.000382404 0.00113617 1.91236e-21)
(0.000400302 0.00113007 8.28942e-22)
(0.000484568 -9.81615e-05 5.16715e-25)
(3.86465e-05 0.000723375 9.40137e-22)
(0.000385552 0.00114244 5.81717e-24)
(0.000987248 -8.5043e-05 0)
(0.000673968 0.00190135 2.96554e-22)
(0.000611595 0.00175862 -1.6513e-21)
(0.000688539 0.00188853 0)
(0.000617184 0.00161689 -7.99533e-22)
(0.000644599 0.00181526 -7.82935e-23)
(0.000199077 0.000878121 -6.85293e-22)
(0.000644888 0.00107741 1.76866e-21)
(3.41454e-05 7.64094e-05 2.50555e-21)
(0.000507926 0.00174464 -1.04518e-23)
(0.000680154 0.00192275 -1.14098e-21)
(0.000408117 0.00112834 0)
(0.000619171 0.00182576 9.56349e-23)
(0.000592219 0.000841189 0)
(0.00068241 0.00188513 4.19929e-22)
(0.000670757 0.00190219 -1.21452e-21)
(0.000728264 0.00203168 -1.15293e-22)
(0.0006549 0.0017507 4.47602e-22)
(0.00065748 0.00171384 -7.57651e-22)
(0.000655474 0.00172119 5.15006e-22)
(0.00059198 0.00175119 -3.27657e-24)
(0.000656871 0.00189226 2.3371e-21)
(0.000443365 0.00120467 1.06135e-23)
(0.00067769 0.00191167 4.60087e-22)
(9.99269e-05 0.000676995 -6.65687e-22)
(0.00021155 5.04418e-05 -6.791e-22)
(0.000368568 0.00110104 4.33916e-22)
(0.000193005 2.33154e-05 -4.06397e-22)
(0.000624587 0.00165452 0)
(0.000523156 2.29661e-05 -3.04657e-21)
(0.000390524 0.00102304 -4.08068e-22)
(0.000652648 0.00181716 1.89778e-22)
(0.000310936 0.00177468 1.85895e-23)
(0.000275779 0.00166379 -1.03706e-23)
(0.000109494 0.000614993 0)
(0.000574525 0.00174505 -9.98359e-22)
(0.000615886 0.00169523 0)
(1.26414e-05 -9.89552e-06 4.88777e-22)
(0.000569692 0.00172696 0)
(0.000395775 0.00204343 -1.60947e-23)
(0.000663512 0.00176947 -2.71685e-22)
(0.000511299 0.00195678 1.26973e-22)
(0.000621046 0.000744147 1.44955e-21)
(0.000592689 0.000781656 0)
(0.000656079 0.00181959 0)
(0.000725943 0.00203716 -2.08256e-23)
(0.000914997 0.000413969 -5.14959e-21)
(8.48975e-05 0.000964626 7.33453e-22)
(0.000106086 0.000260434 0)
(0.000610798 0.00178321 -1.64162e-22)
(6.45301e-05 0.00013761 0)
(0.000402314 0.00115389 2.05895e-21)
(0.000602063 0.00169306 7.14205e-23)
(0.00061016 0.00181912 -1.14372e-22)
(0.000704709 0.00190573 1.01631e-21)
(0.00063188 0.00172996 -3.97603e-22)
(0.000692617 0.00189648 1.23485e-21)
(0.000242278 0.000879278 1.58472e-21)
(0.00162607 0.00143844 0)
(0.000555102 0.00172087 3.29181e-21)
(0.000603883 0.00170622 0)
(0.000663333 0.00181212 0)
(0.000358747 0.00120112 -1.0741e-22)
(0.000667053 0.00203079 2.4277e-23)
(0.000532196 -6.73322e-05 -2.21927e-21)
(0.00039544 0.000737501 -8.59873e-22)
(0.000390992 0.000541596 1.53178e-21)
(0.000712937 0.00195156 4.93744e-21)
(0.000654105 0.00194417 1.60335e-21)
(0.000470254 0.00120343 -3.99974e-22)
(0.000770967 0.000414065 0)
(0.000590137 0.0018336 -1.31694e-21)
(0.000875225 0.000320228 1.39347e-21)
(0.000981416 7.29912e-05 -7.21853e-22)
(0.00115366 0.000639159 -4.58617e-21)
(3.77533e-05 0.0011332 1.0628e-22)
(5.26356e-05 0.000106964 -1.32799e-22)
(0.000583794 0.0020742 1.2839e-22)
(0.000533992 0.00162842 3.19249e-22)
(0.000430983 0.000556023 -3.33837e-21)
(0.000617635 0.00172323 -1.82364e-22)
(0.000655711 0.00171358 -2.62913e-22)
(0.00102894 6.11326e-05 2.08498e-21)
(0.00068846 0.0018804 1.07627e-23)
(0.000980256 -4.33434e-05 -1.19125e-21)
(0.000649639 0.00172744 8.00749e-22)
(0.000668482 0.0018805 -7.28772e-22)
(0.000655104 0.00192787 3.11964e-23)
(0.000655731 0.00182442 3.97454e-22)
(0.000660921 0.00176366 -3.93315e-22)
(0.000893604 0.000348761 -1.70365e-21)
(0.000604805 0.00169478 3.57049e-22)
(0.000635815 0.00169706 0)
(0.000635739 0.00171953 4.8126e-22)
(0.000906518 0.00189252 -2.03276e-21)
(0.000457462 0.00142206 0)
(0.000663849 0.00191537 0)
(7.05975e-05 0.000153849 -1.76647e-23)
(0.00055783 0.00178623 0)
(0.00100263 1.6236e-05 0)
(0.000671609 0.00189509 2.08364e-22)
(0.000238887 6.68032e-05 1.28332e-21)
(0.000382337 0.000673159 -1.94368e-21)
(5.89615e-05 0.00012263 0)
(6.06419e-06 1.78512e-05 3.21556e-22)
(4.0448e-05 8.50837e-05 4.45399e-21)
(8.31112e-06 5.83251e-06 2.993e-22)
(4.5141e-05 9.4952e-05 -2.10566e-21)
(0.000970462 6.91185e-05 -2.53756e-21)
(0.000634213 0.000683233 -4.29426e-21)
(0.000578545 -0.000215277 -1.85484e-21)
(0.000608009 0.00172374 -3.89566e-22)
(0.000216482 2.98108e-05 -2.53292e-22)
(0.000715412 0.00183013 -1.70958e-23)
(0.000694324 0.00189308 7.63737e-22)
(5.61383e-05 0.000548928 0)
(0.000543359 0.000863422 0)
(0.000846028 0.00034297 -7.84117e-22)
(0.000752758 0.000432188 1.77699e-21)
(0.000997043 4.45013e-05 4.06127e-25)
(0.000617082 0.00195323 1.95553e-22)
(0.00103714 0.000672742 1.81969e-21)
(0.000409053 0.00114928 -6.75391e-22)
(0.00062529 0.00169824 -1.4429e-22)
(0.000637197 0.00177297 0)
(0.00028298 -0.000121626 -1.19528e-24)
(0.000653689 0.00187532 7.04667e-22)
(0.000644516 0.00168558 0)
(0.000635895 0.00178724 -1.08101e-22)
(0.000658364 0.0018195 0)
(0.00118426 0.000241656 -2.23243e-21)
(0.00112111 0.00076649 -3.50327e-21)
(0.000823159 0.0017533 -2.10585e-21)
(0.000697073 0.00187963 -1.68747e-22)
(0.000682501 0.00187039 2.3787e-22)
(0.000336217 0.00195915 0)
(0.000354622 0.000386351 -2.40445e-22)
(0.000496208 0.000104148 1.84534e-21)
(0.000697226 0.00185995 0)
(0.000404213 0.0011002 -3.48908e-22)
(0.000650878 0.00178876 1.60861e-21)
(0.000514994 0.00154438 -4.11456e-23)
(0.000675439 0.00192834 -1.96868e-23)
(0.000729309 0.00200263 -2.20657e-21)
(0.000736409 0.00200104 0)
(0.000647239 0.00153744 1.0289e-21)
(7.88485e-06 3.31846e-05 8.72758e-24)
(0.000630716 0.0017443 -9.47066e-23)
(0.000385023 0.00109994 0)
(0.000603003 0.00177131 9.4955e-23)
(0.000690783 0.00188442 5.86887e-22)
(0.0011927 0.000555005 3.15479e-21)
(0.000740891 0.0017963 -6.40475e-22)
(0.00070821 0.00193857 8.1619e-22)
(0.000434707 0.000303974 3.80796e-21)
(0.000657069 0.00175824 0)
(0.000904784 -0.000152384 -1.46572e-22)
(0.000387069 0.00113866 -1.33275e-22)
(0.000764166 0.00101091 -2.418e-21)
(0.000471724 3.50929e-05 -1.76593e-21)
(0.000650527 0.00172642 -5.68919e-22)
(9.51483e-06 5.22975e-05 0)
(0.000620443 0.00173962 0)
(0.00112308 0.00185273 0)
(0.000967402 -0.000120299 0)
(0.000659163 0.00177778 -1.49112e-21)
(0.000312134 -0.000138823 -5.6038e-22)
(0.000373485 0.00106064 -5.4638e-22)
(5.07393e-05 -3.00311e-07 2.47942e-21)
(1.10611e-05 6.81848e-05 -3.22165e-22)
(0.000487131 9.99102e-05 5.80385e-25)
(0.000601048 0.00185402 3.76087e-22)
(0.000634675 0.00186192 -4.63702e-22)
(0.000695407 0.000199717 -3.88486e-21)
(0.000653294 0.00170214 -2.82481e-22)
(0.000646551 0.00183217 4.54929e-22)
(0.000647078 0.00170774 -8.01585e-22)
(0.000167957 -3.55806e-05 -2.11117e-21)
(0.000710008 0.00202515 -2.06868e-22)
(0.000708985 0.000886084 -9.99382e-22)
(0.000660571 0.00175464 5.91167e-22)
(0.00069153 0.00190625 -9.78189e-22)
(6.48592e-06 2.26016e-05 0)
(0.000694004 0.00190145 1.19121e-22)
(0.000982179 0.000361289 -3.88678e-21)
(0.000654038 0.00191563 0)
(0.00064133 0.00179638 -2.85092e-21)
(0.000692066 0.00200409 1.78734e-23)
(0.000546577 0.00198141 1.90222e-23)
(0.000626458 0.00188378 9.4302e-22)
(8.26619e-06 3.90196e-05 -2.78908e-22)
(0.000637884 0.00170057 -1.63416e-22)
(0.000678632 0.00188148 -8.21297e-22)
(0.000657853 0.00179441 -3.02794e-22)
(0.000710689 0.00185225 7.9654e-22)
(0.00135463 0.000491897 1.67098e-21)
(0.00068697 0.00188152 -1.12771e-21)
(0.000707629 0.00192499 0)
(0.00070601 0.00194437 -2.59472e-23)
(0.00065632 0.0018269 -1.96363e-22)
(0.000654363 0.00181738 1.64335e-22)
(0.000660815 0.0017731 1.07763e-23)
(0.000419016 0.000986077 -3.36142e-21)
(0.000453782 0.000585958 -1.4238e-21)
(0.000645939 0.00171672 6.03863e-22)
(0.00064872 0.00189504 -4.8265e-23)
(0.000337103 0.000124191 4.47809e-21)
(0.000666912 0.0017617 0)
(0.000188035 0.000931325 -1.74308e-22)
(0.000620927 0.00168731 1.56085e-22)
(0.000673918 0.00192209 0)
(9.00574e-06 4.55461e-05 -9.82473e-24)
(0.000264305 -0.000214482 0)
(1.04695e-05 6.05386e-05 2.361e-22)
(0.00175398 0.00182407 -9.06091e-22)
(1.99979e-05 8.0189e-05 8.10353e-22)
(0.000637307 0.001855 0)
(3.46502e-05 0.000752681 0)
(0.00131093 0.000165724 -3.83865e-22)
(0.000663087 0.00194624 -9.68086e-23)
(0.000656207 0.00173871 -6.37101e-23)
(0.000639825 0.00190483 7.65745e-22)
(0.00064134 0.00190867 6.33049e-22)
(7.04194e-06 2.76651e-05 2.81545e-22)
(0.00115117 0.000530634 4.27513e-21)
(0.000527785 0.00197687 1.08495e-21)
(0.000849987 0.000925902 -1.34128e-21)
(0.000198696 -6.0103e-05 -2.24585e-21)
(0.000654321 0.00177034 -7.47564e-22)
(4.80462e-05 0.000331415 -1.72873e-21)
(0.000747021 0.00202115 0)
(0.000642518 0.00182263 -6.84045e-22)
(0.000663072 0.00175899 0)
(0.000773966 0.000923436 0)
(0.000354294 0.000923473 1.38073e-21)
(1.53521e-05 8.08188e-05 -1.34017e-22)
(0.000227851 -0.000182276 4.20324e-21)
(0.00106094 0.00031607 1.17315e-21)
(0.00130116 0.000129063 9.56341e-22)
(0.000124828 0.00023867 -7.51976e-24)
(0.000696362 0.00189654 -5.82492e-22)
(0.000691865 0.00201073 -8.97136e-22)
(0.000190588 4.37e-05 -4.13593e-22)
(0.000524542 0.00138097 1.69755e-21)
(0.000648339 0.00169409 -6.00539e-24)
(0.00041799 0.000753245 1.42369e-21)
(0.000661689 0.00182336 -8.99647e-22)
(0.000540485 0.00184747 3.42729e-24)
(0.000636939 0.00194054 2.89856e-21)
(0.00066413 0.00181834 5.07356e-22)
(0.000274402 0.000836009 0)
(0.00066945 0.00190517 6.22947e-22)
(0.000612225 0.00169273 -1.94122e-22)
(0.000679866 0.000888656 -1.63002e-21)
(0.000380991 0.00191378 -4.65928e-22)
(0.000697443 0.00188756 -2.12553e-22)
(5.72498e-06 1.35447e-05 -5.83253e-22)
(0.000943907 3.09973e-05 0)
(0.000373933 -0.000259335 -6.9862e-22)
(0.00065735 0.0017529 -1.29221e-21)
(0.000659686 0.00174448 -1.22386e-22)
(0.000418419 0.000737086 -1.23e-21)
(0.000660921 0.00182741 8.05933e-22)
(0.000338607 0.000656559 4.14991e-21)
(0.000492015 0.00167474 2.98502e-22)
(0.000173171 -0.000131202 -9.19554e-22)
(0.000508659 0.00164059 3.99443e-23)
(0.000640217 0.00170373 0)
(0.00022938 8.62805e-05 0)
(0.000680737 0.00188739 -7.28273e-22)
(5.46295e-06 8.98089e-06 1.46361e-22)
(0.000954768 0.00128359 -1.3062e-23)
(0.00098497 0.000460894 1.66384e-21)
(0.000594126 0.00186967 1.33312e-21)
(6.36009e-05 0.000603805 1.49232e-22)
(0.000600546 0.00184395 1.5078e-21)
(-3.62356e-06 7.75055e-05 1.41882e-21)
(0.000476235 -0.000154576 0)
(0.00069794 0.00192784 0)
(6.92273e-05 6.58165e-05 -1.50282e-21)
(0.000700464 0.00210117 -2.40879e-22)
(0.000706028 0.000256421 -1.57892e-21)
(2.65842e-05 4.10016e-06 -2.74996e-22)
(0.000114967 2.08125e-06 1.33431e-21)
(0.000674929 0.00188069 3.60187e-21)
(0.000426625 -3.36069e-05 1.61786e-21)
(0.000636056 0.00177379 2.33337e-22)
(0.00120069 0.000694718 1.285e-21)
(0.000640317 0.00180804 1.79628e-21)
(0.000664082 0.00176895 -1.08456e-23)
(0.00026137 0.00114003 -1.99773e-21)
(0.000424311 0.00092781 2.20113e-21)
(7.56097e-05 0.000879918 0)
(0.000667352 -0.000171031 2.81173e-21)
(6.23722e-05 5.08989e-05 -8.50378e-22)
(0.000253604 0.00136243 -1.65264e-21)
(0.000553157 0.00185951 -5.69717e-22)
(0.000665532 0.0017605 -7.66743e-22)
(0.00063614 0.00184814 6.727e-22)
(0.000667347 0.00179059 -5.98298e-22)
(0.0005117 0.00170116 -3.16997e-23)
(0.00086803 0.000543343 0)
(0.000617985 0.000853056 2.68746e-21)
(0.000366399 -0.000149069 -9.5987e-22)
(0.000649843 0.00193944 -1.25395e-21)
(0.000104054 4.91236e-06 2.45758e-26)
(0.000650221 0.00168982 5.32305e-22)
(0.00096673 6.49363e-06 9.61967e-23)
(0.000832557 0.00116428 -1.36977e-23)
(0.00144167 0.000455979 0)
(0.000547925 0.00158504 -1.54448e-23)
(0.000324745 -9.24699e-05 6.47931e-22)
(0.000720146 0.00208066 -7.34229e-22)
(0.000146837 -0.000124176 2.67522e-21)
(0.000493154 0.00133055 0)
(0.00113395 0.000464821 -3.05658e-21)
(0.000597281 0.00164113 -1.11063e-21)
(0.000519305 0.000856534 -5.97835e-22)
(8.10459e-05 6.58836e-05 8.55609e-22)
(0.000970312 2.72194e-05 -5.2372e-22)
(0.000334778 0.00039356 -3.66701e-22)
(0.000662357 0.00182742 0)
(9.86765e-05 1.73341e-05 9.12706e-22)
(0.00030005 0.000457475 -1.25951e-21)
(0.000941118 0.000976522 3.25023e-22)
(9.70077e-05 6.62745e-05 -2.20541e-21)
(0.000698776 0.00199642 -5.13716e-21)
(0.000590974 0.00180031 3.31613e-23)
(0.000664136 0.00182919 6.92037e-22)
(0.00103492 2.74426e-05 0)
(0.000661346 0.00182971 0)
(2.73246e-05 -0.000102199 1.11325e-21)
(0.000659097 0.000526642 6.09183e-21)
(4.6573e-05 3.8988e-05 2.13215e-21)
(0.000761811 0.00193344 8.18736e-21)
(1.03136e-05 -3.38496e-05 1.81912e-23)
(0.000619471 0.00168096 -3.47465e-22)
(0.000787455 0.000293203 -4.88889e-21)
(0.000625927 0.00183143 0)
(0.00128664 0.000715783 2.20321e-21)
(0.000614957 0.00191523 3.12894e-22)
(0.000955444 0.000301068 1.55226e-21)
(7.67287e-05 2.73935e-06 1.27942e-21)
(0.000679772 0.00208181 7.1242e-22)
(0.000324401 0.000853099 -1.53809e-21)
(3.92937e-05 6.95561e-05 -1.86677e-21)
(0.000645581 0.00190211 7.7692e-22)
(0.000894928 0.00101104 1.09298e-21)
(0.00096185 1.04017e-05 6.28591e-22)
(4.63939e-05 6.309e-05 -4.57728e-22)
(0.000123147 -0.000109075 -2.6412e-22)
(0.000630027 0.000475354 -1.71966e-22)
(0.000239625 0.000790017 1.91789e-21)
(0.000649661 0.0019383 3.59452e-22)
(0.000231738 0.00114157 0)
(0.000730844 0.00202317 -2.10655e-21)
(0.000757441 0.00200027 0)
(0.00090595 0.000277004 -3.29265e-21)
(7.56835e-05 0.000808185 -7.90993e-22)
(4.09274e-05 6.78815e-05 2.4421e-21)
(0.000655305 0.00187817 5.17632e-26)
(0.000912874 0.000285458 6.59768e-24)
(0.000866267 0.000780745 0)
(0.00088078 0.000870417 -6.45131e-22)
(0.000655189 0.00177463 0)
(0.000677598 0.00190119 -1.98124e-22)
(0.000630255 0.00169586 0)
(0.00106307 0.000184882 -4.50798e-21)
(0.000873463 0.0014378 6.3386e-23)
(0.000313011 6.21113e-05 1.38845e-21)
(0.000651007 0.00173923 -6.87634e-22)
(4.8908e-05 3.19457e-05 0)
(0.000642462 0.00187272 -1.8932e-24)
(7.84576e-05 0.000136239 2.19242e-21)
(0.000948533 -6.83887e-05 5.16031e-22)
(0.000770084 0.000660758 -1.87715e-21)
(0.000639934 0.00182257 2.93602e-22)
(0.000638506 0.00193743 -1.64027e-22)
(0.000962855 1.62177e-05 2.14784e-22)
(0.000660817 0.00181083 6.68808e-22)
(0.000831127 0.000863678 1.90703e-21)
(3.52622e-05 3.99791e-06 -1.51545e-21)
(0.000703606 0.00210942 -4.48039e-22)
(0.000582119 0.000517633 0)
(-8.08366e-05 0.000606089 3.23154e-21)
(0.00102373 0.000270277 0)
(0.000663361 0.00178121 -7.6885e-22)
(0.00108761 0.000242773 0)
(0.000657682 -0.000203648 2.03742e-22)
(0.000320197 0.000750291 1.01316e-21)
(0.000411619 0.000946836 1.05799e-21)
(0.000810342 0.00142138 -1.87837e-21)
(0.000345281 0.00104538 -1.07514e-21)
(-4.01943e-05 0.000569318 7.38184e-22)
(0.000773908 0.00086222 1.62913e-21)
(0.00069161 0.00189864 -6.09709e-22)
(0.000647421 0.00169272 -2.96649e-22)
(0.00067081 0.00188129 8.9667e-22)
(0.000731733 0.00199226 -4.02361e-21)
(0.000584336 0.000224483 4.19035e-24)
(0.000746219 0.00202356 0)
(0.000460516 0.000586787 0)
(0.00065461 0.00181871 0)
(0.000990668 0.00160653 5.48423e-21)
(0.0004343 0.00113886 3.59489e-24)
(0.000622426 0.00182163 2.63584e-22)
(0.000618744 0.00177544 -5.63932e-23)
(0.000636757 0.00188929 -1.72097e-22)
(9.79569e-05 -0.000754585 6.55561e-22)
(0.000502636 0.0004959 -2.15429e-21)
(0.000701284 0.0019086 -1.32315e-21)
(7.84447e-05 -9.0729e-06 -4.53868e-22)
(0.000639243 0.00179615 -1.36364e-21)
(3.54939e-05 -1.91981e-06 0)
(0.000432323 0.000853344 2.42265e-22)
(0.000631201 0.000313598 -3.76372e-21)
(0.00102809 0.000610226 1.3501e-21)
(0.000609217 0.00149361 -1.10559e-21)
(0.000586799 0.00174548 2.60855e-23)
(0.000537373 0.000809529 -2.35053e-21)
(0.000336455 0.000505207 -6.07197e-24)
(0.000794019 0.000715841 2.56883e-21)
(3.52677e-05 4.88624e-05 3.03174e-22)
(0.000628828 0.00182237 0)
(0.000395187 0.000461619 -4.65791e-24)
(0.000662271 0.00192958 -3.91196e-22)
(0.000935672 -2.12273e-06 8.74279e-22)
(0.000647978 0.00179269 2.66517e-22)
(0.000822264 -0.00034437 -2.70653e-21)
(0.00069197 0.00191369 4.06733e-22)
(1.58836e-05 0.000122069 -2.98572e-22)
(0.000622362 0.00204533 -2.44744e-22)
(0.00038354 0.00120584 5.06865e-23)
(2.50376e-05 8.6014e-05 0)
(0.000295298 0.000580075 -8.10769e-22)
(0.000710987 0.00190915 6.16411e-23)
(0.000633146 0.00190138 -5.92956e-22)
(0.000424275 0.000645484 4.61795e-21)
(0.000571785 0.000266909 -2.70381e-21)
(0.000377992 0.000632905 -1.73592e-24)
(0.000333205 0.00062085 -3.29004e-21)
(2.91547e-05 5.198e-05 5.64041e-22)
(0.000778523 0.000677203 2.97467e-21)
(0.00010114 -9.5165e-05 5.52308e-22)
(0.000656031 0.00177017 1.5305e-22)
(5.95236e-05 0.000994183 -5.40737e-22)
(0.000712525 0.00209683 0)
(0.000659725 0.00175707 -1.31953e-21)
(0.000391682 0.000508182 -2.87336e-21)
(0.000552145 0.000126951 1.18036e-21)
(0.00068549 0.00188653 -2.48497e-21)
(0.000689316 0.00189195 -3.41299e-22)
(6.71831e-05 0.000106779 1.39815e-22)
(0.000338067 0.000539526 -2.91251e-21)
(0.000708606 0.0021521 -3.506e-22)
(0.000640677 0.00188639 -7.78077e-22)
(0.000619187 0.00115802 -3.22019e-21)
(0.000804371 0.000192484 2.25811e-21)
(7.53743e-05 -7.27837e-05 -1.73908e-23)
(0.000671429 0.00193152 0)
(0.00107151 0.000432729 0)
(0.000315584 2.24035e-05 2.33003e-21)
(0.000332072 0.000457381 5.46402e-21)
(0.000886894 0.000295071 2.03128e-25)
(0.000297024 0.000426563 1.32457e-21)
(0.000639937 0.00187677 -8.17207e-22)
(1.81977e-05 0.000149863 -1.15052e-21)
(0.00056086 0.000209389 -1.41851e-21)
(0.00109278 -2.10918e-05 0)
(0.00060259 0.000422815 0)
(0.000630251 0.00185074 7.85042e-22)
(0.000103328 0.000438746 2.56164e-24)
(-2.60736e-05 0.000637871 -6.27504e-22)
(0.000640446 0.00188509 1.72308e-21)
(3.57238e-05 2.57811e-05 1.80367e-21)
(0.000725612 0.000645108 -9.66643e-22)
(0.000596241 0.000671724 -2.60833e-22)
(0.000655988 0.00182687 5.76896e-22)
(0.000472217 -3.06179e-05 -3.4018e-25)
(0.00112615 0.00011062 -2.09259e-21)
(0.000669959 0.00192017 -8.44253e-22)
(0.000676607 0.0019019 -7.80239e-22)
(0.000357369 0.000421162 0)
(0.000402908 0.00114223 1.1066e-22)
(4.24555e-05 1.91175e-05 -1.32465e-22)
(0.000297431 0.000495459 1.27454e-21)
(0.000638699 0.00196473 1.89705e-22)
(0.000736568 0.0019798 -2.06701e-21)
(0.000642601 0.00058982 0)
(0.000641615 0.00190008 0)
(1.42698e-05 0.000130086 0)
(0.000925945 0.000454523 2.38319e-21)
(0.000674351 4.8916e-05 7.56476e-22)
(0.000663622 0.000476278 2.99438e-21)
(-4.69948e-06 0.000483576 0)
(0.000637031 0.00061597 3.83855e-22)
(0.000766056 0.000195747 1.96526e-21)
(0.00062757 0.00032172 6.58814e-21)
(8.58543e-05 7.82764e-05 0)
(0.000980532 -3.49525e-05 -8.40702e-23)
(0.000637566 0.00173557 2.4064e-22)
(0.000298659 0.000550187 1.41095e-21)
(0.00064615 0.00185216 -2.06296e-22)
(0.00066791 0.00178581 -2.56344e-24)
(0.000650532 0.00181419 2.79639e-23)
(0.00032948 0.000319373 3.60615e-22)
(0.000788819 1.76911e-05 0)
(2.09794e-05 3.17313e-05 -3.83367e-27)
(0.00094489 -5.259e-05 1.56049e-21)
(1.57694e-05 9.65613e-06 -3.78451e-22)
(0.000472631 -0.000231326 -1.25337e-21)
(0.00121062 0.000102949 0)
(0.00107261 0.000226505 1.80929e-21)
(0.000549142 0.00163574 -1.85814e-24)
(4.46071e-05 2.80187e-05 0)
(0.000736775 0.00203508 3.58994e-22)
(0.000716522 0.000123723 6.30102e-22)
(0.000963354 1.59865e-05 -2.76122e-22)
(2.1619e-05 0.000186006 0)
(0.00108808 0.000485537 -4.07264e-21)
(0.000654129 0.00170133 -3.8043e-22)
(0.000742056 0.00205362 -2.85219e-21)
(0.000629549 0.0018772 -2.69783e-24)
(0.00065313 0.00169282 0)
(6.26574e-08 0.000104346 -8.79138e-23)
(0.000694343 0.000737975 -6.62536e-22)
(0.000957748 4.90299e-05 -2.70073e-21)
(0.000816854 0.000195708 -3.06999e-21)
(0.000385296 6.84461e-05 7.04928e-21)
(5.10454e-05 2.40376e-05 -8.69162e-22)
(0.000658701 0.00174366 -9.38769e-21)
(0.000276216 0.000723266 6.61295e-25)
(0.000675445 0.00191403 -2.80731e-23)
(0.000635761 0.00201074 -5.01252e-23)
(0.000654264 0.00178989 0)
(0.000975217 3.41231e-05 0)
(6.52007e-05 -6.33947e-05 0)
(0.000685458 0.00189035 -2.04024e-22)
(0.000651531 0.0018394 -1.77548e-21)
(0.000618363 0.000382426 -4.04025e-21)
(0.000714414 0.00191079 0)
(0.00152026 0.000556462 3.7172e-22)
(1.91538e-05 3.56756e-05 -4.55992e-22)
(0.00134059 0.000662664 -9.44196e-23)
(0.000726651 0.00206265 1.23224e-21)
(7.59462e-05 -1.59061e-05 2.15877e-21)
(0.000646066 0.00179609 -1.30715e-21)
(0.000651699 0.00179727 -1.00444e-21)
(0.000997542 2.296e-05 -8.24862e-23)
(0.000654982 0.00171561 3.6096e-22)
(0.000403924 4.70689e-05 -2.35082e-21)
(0.000655402 0.00181844 0)
(0.000636798 0.00184365 -3.2029e-22)
(3.63666e-05 1.67357e-05 0)
(0.000434913 1.18799e-05 3.21385e-25)
(0.000702355 0.00204851 1.01951e-23)
(0.000637754 -0.000372326 9.92315e-22)
(0.000391592 0.0010988 7.29569e-24)
(0.00109419 6.39877e-05 1.32976e-22)
(0.000155133 -4.84373e-05 2.32026e-21)
(0.00033958 -1.00562e-05 -1.39426e-21)
(0.000992536 1.14339e-05 1.56003e-21)
(0.000634425 0.000584807 4.78923e-22)
(0.000716943 0.000163147 2.38791e-21)
(0.000644995 0.00176458 -8.99619e-22)
(0.000137579 0.000171158 -1.2585e-21)
(0.000757991 -0.00021199 5.87197e-22)
(2.58717e-05 4.02786e-05 1.85548e-21)
(0.000745878 0.00204967 -2.35546e-21)
(0.000310732 0.000357604 0)
(0.000757281 0.000946398 2.70403e-21)
(0.000710507 0.00207933 0)
(0.000682728 0.00191482 0)
(0.000924338 3.47365e-05 0)
(0.00066021 0.000393021 -2.30015e-24)
(0.000316772 -5.52891e-05 5.11662e-26)
(0.000310081 -0.000207179 -1.68839e-21)
(0.000558836 0.00029254 -5.73607e-21)
(0.000305894 -1.73167e-05 1.32419e-21)
(1.94567e-05 0.000166474 1.15645e-21)
(0.00071285 0.00206711 0)
(0.000312413 -0.000249015 5.86169e-21)
(0.000148801 -0.000153191 1.1806e-21)
(0.000692312 0.00190912 -1.85699e-22)
(0.000388201 0.000958703 0)
(6.12676e-05 8.88333e-05 -1.72181e-21)
(0.000310625 -0.000105026 2.12774e-21)
(0.000352551 8.57779e-05 -4.05502e-21)
(0.000956861 3.5796e-05 3.64862e-21)
(0.000942251 0.000346296 3.25701e-21)
(0.000656064 0.00191435 -6.38418e-22)
(0.000935713 -9.13408e-05 0)
(0.000566455 -0.00017861 1.42842e-21)
(0.000580835 -0.000115973 3.74127e-21)
(0.000570108 -6.43431e-05 -4.7316e-21)
(0.000538634 5.41235e-05 2.10329e-21)
(0.000576208 -1.72841e-06 -1.15381e-21)
(-2.37479e-05 -0.000413031 8.16304e-22)
(3.99648e-05 2.58218e-05 2.57765e-22)
(0.000779382 0.000872357 -4.43018e-21)
(0.000900133 -4.68002e-05 0)
(0.000643798 0.00179853 -1.74015e-22)
(0.000423659 0.000117618 -9.07501e-22)
(0.00025098 0.00128702 -1.74175e-21)
(0.000693297 0.00189483 -9.66385e-22)
(0.000144367 -6.1628e-05 1.96605e-23)
(0.000727275 0.00208974 -8.59392e-22)
(0.000706528 -1.96613e-06 6.65357e-22)
(0.000352287 0.000285826 3.4278e-22)
(0.000570122 0.000100289 0)
(0.000657961 0.00183897 0)
(0.000713973 0.000370161 3.6375e-21)
(0.00068251 0.00188403 -6.42114e-22)
(0.000220905 -9.37808e-05 -2.02037e-21)
(0.000641598 0.00179914 6.78042e-22)
(0.00096008 1.13334e-06 2.81942e-24)
(6.85265e-06 0.000445461 0)
(0.000659142 0.00183183 1.82258e-22)
(0.000651515 -0.000108506 2.38038e-21)
(0.000287973 0.000388183 -2.71096e-21)
(1.31737e-05 1.44184e-06 1.09765e-21)
(0.000962839 2.92028e-05 -4.20094e-21)
(0.000261941 -8.64834e-05 5.0551e-21)
(0.000982869 -2.84243e-05 -2.19385e-21)
(0.00083367 -0.000160267 1.36908e-21)
(0.000734239 0.00206256 -1.5078e-21)
(0.000978964 1.92116e-05 2.84832e-22)
(0.000107592 -0.000119561 -1.63731e-21)
(0.000649558 0.00182018 6.03498e-24)
(0.000495205 0.0011835 -6.53229e-22)
(0.000966677 5.9063e-06 -1.06624e-21)
(0.000930721 3.37292e-06 3.69855e-21)
(0.00110758 0.000147085 0)
(0.000662695 0.00181253 -5.23636e-22)
(0.000355893 4.05627e-06 1.37909e-21)
(1.95314e-05 2.77182e-05 1.87894e-21)
(0.000528938 0.000910137 -3.393e-22)
(0.000456176 0.00171832 -1.49069e-21)
(9.66452e-06 1.25341e-06 -1.09379e-21)
(2.8638e-05 0.000277274 -7.72338e-23)
(0.000721584 0.00190238 0)
(0.000663159 0.00175918 7.9552e-23)
(0.000687368 0.00020356 -1.11069e-21)
(0.000983986 -2.07273e-05 -5.08091e-21)
(3.003e-05 0.000305717 0)
(0.000654248 0.00182572 4.84313e-23)
(0.000657157 0.0018314 -7.92916e-22)
(0.000731507 0.00205789 1.57849e-23)
(0.000732473 0.00203897 0)
(0.000604556 0.000564609 -1.8262e-21)
(0.000167273 -0.000195684 0)
(0.000634126 -4.44878e-05 1.25507e-21)
(0.0007518 0.00204441 3.73416e-21)
(0.000667155 0.00182813 4.5402e-21)
(0.000636265 0.00183904 0)
(0.000669036 0.00183683 -1.63125e-24)
(0.000962507 1.15875e-05 0)
(0.000279697 4.83014e-05 1.45009e-21)
(0.000359098 4.86814e-05 -2.50349e-21)
(0.000427948 -0.000157292 0)
(0.000644509 0.00177063 2.03852e-22)
(-1.45259e-06 -0.000261044 2.06033e-21)
(0.000728251 0.00205214 1.54968e-21)
(0.000739121 0.00208859 -9.62311e-22)
(0.000522059 0.0017117 -4.44511e-22)
(0.00100327 5.08922e-05 0)
(0.0009054 2.01428e-05 1.35864e-22)
(0.000215626 -7.44312e-05 -3.53238e-22)
(0.000702275 0.0020122 1.15912e-21)
(1.90363e-05 2.655e-07 0)
(0.000735219 0.0020485 0)
(0.000653692 0.00190421 8.9948e-22)
(0.000838789 -8.01477e-05 0)
(0.000134699 -3.56064e-05 -7.05843e-23)
(0.0009562 2.18348e-06 -5.12496e-22)
(1.72289e-05 0.000256533 6.73526e-22)
(0.000127594 -0.000144907 8.37232e-22)
(0.000822994 7.40773e-05 1.24879e-21)
(0.00119057 0.00139501 -3.49787e-21)
(2.29739e-05 4.10936e-05 -1.96775e-21)
(0.000721455 0.00195771 2.73953e-21)
(0.000682875 0.00191272 -2.12407e-21)
(0.00100772 6.36883e-06 0)
(0.000852393 2.46409e-05 -1.04967e-23)
(0.000671604 0.00191013 1.46442e-21)
(0.000124903 -5.12468e-05 -1.13268e-21)
(0.000669217 0.00183226 -1.05148e-22)
(0.000763606 0.00202929 7.49795e-22)
(0.000718089 0.00199944 -2.39099e-21)
(2.98498e-05 5.62878e-05 -5.90642e-22)
(7.68532e-05 0.000256468 7.30272e-23)
(5.06534e-05 8.77783e-06 1.23354e-21)
(1.53429e-05 2.61081e-05 4.93719e-22)
(0.000632617 0.0018272 0)
(0.000163883 -6.18312e-05 -9.2164e-26)
(0.00074372 -1.25295e-05 0)
(2.10537e-05 4.3024e-05 2.44032e-22)
(0.000651903 0.00176031 7.94388e-22)
(9.73321e-05 -4.22943e-05 0)
(0.000291522 0.000691208 -1.54711e-21)
(0.000951167 -1.79815e-05 0)
(1.58552e-05 -1.82896e-05 5.6521e-22)
(0.000728351 -0.000192998 0)
(0.000948839 5.79165e-05 0)
(0.000733768 4.2301e-05 6.75798e-22)
(3.08451e-05 -0.000268839 0)