/*--------------------------------*- C++ -*----------------------------------*\
  =========                 |
  \\      /  F ield         | OpenFOAM: The Open Source CFD Toolbox
   \\    /   O peration     | Website:  https://openfoam.org
    \\  /    A nd           | Version:  8
     \\/     M anipulation  |
\*---------------------------------------------------------------------------*/
FoamFile
{
    version     2.0;
    format      ascii;
    class       volVectorField;
    location    "6.2";
    object      U;
}
// * * * * * * * * * * * * * * * * * * * * * * * * * * * * * * * * * * * * * //

dimensions      [0 1 -1 0 0 0 0];

internalField   nonuniform List<vector> 
5490
(
(0.000304644 0.00192467 1.03666e-21)
(0.000300628 0.00192264 1.65281e-21)
(0.000314383 0.00190598 -1.53939e-23)
(0.000303405 0.00192217 -1.06687e-21)
(0.000333853 0.0020448 -1.11569e-22)
(0.000424809 0.000671453 -4.39555e-21)
(4.6879e-06 1.25187e-05 2.60974e-21)
(0.000237211 0.00022175 4.63419e-22)
(0.00032376 0.00193145 2.02413e-23)
(0.000434407 0.000172783 1.41134e-21)
(0.000307065 0.00193592 -3.6056e-22)
(0.000167027 0.00108868 0)
(0.000314151 0.00192732 -6.28776e-22)
(0.0003352 0.00169648 3.45949e-22)
(0.000319306 0.00193535 6.76312e-22)
(0.000491598 0.00015419 -6.81287e-21)
(-2.08316e-07 1.86514e-05 0)
(0.000107436 0.000656791 0)
(0.000260369 0.00167293 -1.1322e-21)
(0.000322669 0.00192107 -7.20251e-22)
(0.000103426 0.00107882 8.49194e-23)
(5.33143e-06 1.47825e-05 -1.31786e-21)
(0.000805761 0.000423864 0)
(1.49266e-06 1.48837e-05 0)
(0.000298181 0.00122494 4.99998e-22)
(0.000310595 0.00193352 1.0359e-21)
(0.000317227 0.00192132 1.321e-21)
(0.000301948 0.00193131 0)
(0.000457064 0.000789486 2.6609e-21)
(0.000322359 0.00192182 0)
(0.000298528 0.00195745 -4.33284e-22)
(2.8672e-05 2.28137e-06 0)
(0.000131976 0.0018309 2.63869e-21)
(0.000384744 0.00203147 1.0243e-21)
(0.000309869 0.00190294 -8.76394e-23)
(0.000306028 0.00166376 1.33202e-22)
(0.000638377 0.000804425 2.05707e-21)
(0.000293664 0.00167845 2.7747e-22)
(0.000376959 0.00203476 9.43827e-23)
(0.000271977 0.00169861 4.54044e-22)
(0.000295449 0.00178734 4.85977e-22)
(0.000563605 0.00073006 9.90337e-22)
(0.000303268 0.00192621 -1.22207e-21)
(0.000568554 0.000833526 1.26073e-21)
(0.00110367 -6.56752e-05 2.92467e-21)
(0.000308939 0.00174372 -5.30883e-22)
(0.000318542 0.0019269 3.16841e-22)
(0.000378604 0.00203423 2.59052e-22)
(0.000331997 0.00178325 -7.13837e-23)
(0.000706267 0.00143435 -4.73783e-22)
(0.000429163 0.000273927 0)
(0.000325259 0.00191173 -1.91894e-22)
(0.000308528 0.00188092 2.01973e-22)
(0.00031851 0.00194077 1.67658e-22)
(0.00031197 0.00193247 -1.10586e-21)
(0.000315838 0.00191961 3.37393e-22)
(0.00150755 7.78874e-05 -1.04042e-21)
(0.000958957 -1.35027e-05 -1.15926e-21)
(0.000350326 0.00203078 0)
(0.000361886 0.00203725 6.79384e-22)
(0.000444591 0.00082724 -1.02292e-21)
(0.00027157 0.00199111 1.14188e-22)
(0.000305644 0.00179847 0)
(0.000199999 0.000189599 -9.02305e-22)
(3.62801e-06 2.42274e-05 0)
(0.00042267 0.000392383 0)
(0.000509047 0.000151968 0)
(0.00135452 0.000272377 1.19653e-22)
(0.000311642 0.00176199 0)
(0.00101729 4.90008e-05 1.16955e-22)
(0.000313689 0.00193776 2.12378e-22)
(0.000364384 0.00203069 -3.22086e-22)
(4.85354e-05 0.000363986 4.51388e-22)
(0.000260218 0.000124752 -3.50157e-22)
(0.000379358 0.000277791 1.71614e-21)
(0.000330359 0.00177105 1.29303e-22)
(0.000678337 0.000567904 3.08838e-21)
(0.000310989 0.00186151 0)
(0.000264262 0.00168742 -6.81575e-22)
(0.000353396 0.00203061 -6.02905e-23)
(0.000529843 0.000572775 5.69899e-22)
(0.000620487 0.000255348 -1.76034e-21)
(0.000216411 0.000762753 2.07843e-21)
(0.000265918 0.0016909 1.09889e-21)
(0.000327555 0.00203725 -3.47952e-23)
(0.000319077 0.00178966 -3.96157e-23)
(-0.000524238 0.000418071 -4.42049e-22)
(0.000293484 0.0004968 1.26532e-21)
(0.000359019 0.00202984 -1.33511e-23)
(0.000672373 0.000878338 -1.45873e-21)
(0.000502704 -0.000202026 -1.83714e-21)
(0.000135575 0.000756805 -2.15283e-21)
(0.000377228 0.00202225 6.98449e-23)
(0.000921925 -3.73401e-05 -9.98239e-23)
(0.000279878 0.00138672 -1.19379e-21)
(0.000490708 9.38921e-05 1.81056e-21)
(0.000367402 0.00203622 4.18709e-22)
(0.000557285 0.000699924 6.63136e-22)
(0.00125019 0.000446682 4.55849e-21)
(0.000320859 0.0018084 5.81684e-22)
(0.000176779 0.00110523 -7.34768e-22)
(0.000295468 0.00168356 -5.1071e-22)
(0.000315006 0.00178997 1.047e-21)
(0.000493366 6.80523e-05 1.62438e-27)
(0.000389038 0.00203059 0)
(0.000337 0.00202194 2.76173e-24)
(0.000312006 0.00179241 -3.99689e-22)
(0.000239259 0.000987771 -1.10364e-21)
(0.000223604 0.000106804 5.39036e-22)
(3.06238e-05 2.685e-06 3.13521e-21)
(0.000502989 -5.30014e-05 3.92677e-21)
(2.88892e-05 0.000309373 2.05239e-22)
(0.000758443 0.00019557 4.18399e-22)
(0.000293159 0.00176332 3.66344e-22)
(0.000364843 0.00203102 3.62893e-24)
(0.000748801 0.000791004 -9.84671e-22)
(0.000324322 0.0018942 0)
(0.000757952 0.000235455 9.12107e-22)
(0.000930524 0.000183452 -2.5257e-22)
(0.000360087 0.0020408 3.64358e-22)
(0.000342734 0.0020241 5.80098e-22)
(0.00116466 0.00174473 4.11718e-22)
(0.00037495 0.000772167 3.38305e-21)
(0.000261552 0.00168508 -1.20168e-21)
(0.000510253 -0.000324495 0)
(0.000328265 0.000335749 -2.30142e-21)
(0.000177116 0.00113308 3.30082e-22)
(0.000301588 0.00190733 1.52023e-22)
(0.000495357 -7.32537e-06 1.84973e-21)
(0.000331414 0.00170757 -2.98094e-22)
(0.00100975 1.1353e-06 -2.31989e-22)
(0.00060573 0.000862024 2.28554e-21)
(0.000384741 0.00174824 3.61248e-22)
(0.000320837 0.00177157 1.14882e-22)
(0.000379919 0.00203178 -2.87362e-22)
(6.54083e-06 0.000257782 0)
(0.000984891 -1.84491e-05 0)
(3.2643e-05 0.000351449 2.33255e-22)
(0.000472851 0.000251469 -4.47437e-22)
(0.000303555 0.00170734 -4.35687e-22)
(0.0004914 -0.000100668 1.94584e-21)
(4.43986e-07 7.32067e-05 7.96779e-22)
(0.000363095 0.00202678 5.03242e-24)
(0.000372665 0.000956913 -1.28369e-21)
(1.71364e-05 -5.13923e-06 -1.37301e-21)
(0.000819575 -0.00014738 -4.31432e-21)
(0.00012919 0.00176485 -1.42507e-23)
(0.00077964 -0.000167442 0)
(0.000326406 0.00188377 8.53334e-23)
(0.000586348 0.000744731 -4.958e-22)
(2.33393e-05 4.3236e-06 0)
(0.000192767 8.48767e-05 -3.06233e-26)
(0.000173179 0.00108748 3.85646e-22)
(3.21131e-06 0.000125866 0)
(0.00078636 0.000686459 2.80422e-21)
(6.47136e-06 3.4845e-05 -7.54807e-22)
(0.000186508 4.50702e-05 -2.19694e-22)
(0.000834075 0.000196878 -2.53765e-22)
(0.000886763 9.28047e-06 9.71268e-22)
(0.000336538 0.0017853 1.69924e-22)
(0.000300602 0.00166408 4.70916e-22)
(0.00067139 0.00108116 0)
(0.000340434 0.000966561 8.27733e-22)
(0.000278058 0.000408686 -1.71222e-24)
(0.000206954 0.000208506 2.15864e-25)
(0.000380128 0.000502201 0)
(3.77047e-05 -3.2431e-06 -1.16737e-22)
(0.00026115 0.00199853 6.51337e-23)
(0.000990221 0.000418612 -2.02072e-21)
(0.000325003 0.00185949 -1.55962e-23)
(0.000972727 -7.64597e-06 2.67767e-21)
(0.000366368 0.00203295 6.55925e-23)
(0.000272759 0.0016414 5.24315e-22)
(3.04843e-05 3.98123e-06 0)
(0.000364827 0.00203777 3.87319e-22)
(0.000337936 0.00204762 0)
(0.000348491 0.00201552 1.04578e-22)
(1.55639e-05 0.000118538 0)
(0.000357317 0.00202026 -1.91693e-22)
(0.000328896 0.00202976 0)
(0.00102021 6.27303e-05 -1.04094e-21)
(0.000162534 0.000189551 1.48279e-21)
(0.000324217 0.00201954 0)
(0.000295878 0.00168216 5.15371e-24)
(5.50135e-07 2.45229e-05 0)
(0.000263658 0.00169124 1.10577e-22)
(0.000295031 0.00167255 -3.27809e-22)
(0.00033755 0.00204295 1.07274e-22)
(0.00014537 1.64026e-05 -1.07982e-22)
(0.00044628 0.000212376 1.23502e-21)
(0.00115257 0.000239393 1.91601e-21)
(0.000181328 0.00106569 -4.00383e-22)
(0.000317176 0.00190055 -3.68813e-22)
(7.16703e-05 7.61507e-06 -1.54077e-21)
(0.00028852 0.000309552 0)
(0.000363015 0.00202977 4.18543e-22)
(0.000356693 0.00202944 1.68774e-22)
(1.04837e-05 5.24204e-05 0)
(0.000329716 0.000774148 3.05737e-21)
(0.000320045 0.00190787 1.00329e-22)
(6.24581e-05 -0.000225914 0)
(0.000334016 0.00178333 1.21185e-21)
(4.67281e-07 4.06673e-05 8.30135e-22)
(0.000500646 1.82503e-05 -1.74186e-21)
(0.000319351 0.0015051 -8.87369e-22)
(0.000954576 -3.14225e-05 4.73786e-22)
(7.63513e-05 -3.06533e-06 2.07496e-22)
(7.61541e-05 -0.000255434 8.71459e-22)
(0.000285829 0.00167978 0)
(0.00119881 0.000175097 2.57034e-22)
(0.000949029 3.02391e-05 0)
(2.70839e-05 0.000248659 2.46692e-22)
(0.000301001 0.00193921 4.66324e-22)
(0.00032105 0.00196072 7.57559e-22)
(0.000338407 0.00185494 1.67925e-21)
(0.000300502 0.00171345 -1.4943e-22)
(0.000331327 0.00176712 -5.24595e-22)
(0.000304418 0.00193548 3.73024e-22)
(0.00101295 1.68723e-05 -5.2591e-22)
(9.32631e-06 4.24827e-05 -5.44809e-23)
(0.000661261 0.000462835 -3.73412e-21)
(0.000145725 5.21797e-06 1.09808e-22)
(0.000800233 0.00117268 -9.5711e-22)
(0.000319422 0.00194145 -2.41276e-22)
(0.000291839 0.00201417 -6.67173e-22)
(0.00035001 0.00202704 1.69508e-23)
(0.000296891 0.00168554 6.94494e-24)
(0.000304683 0.00178261 4.04516e-22)
(0.000315507 0.00193927 -2.10021e-22)
(2.23205e-05 0.00021265 -2.62064e-23)
(0.000169237 0.00114389 -1.45294e-23)
(0.000683582 0.000806331 0)
(3.09087e-05 1.48767e-06 1.57312e-21)
(0.000367193 0.000258688 1.23017e-21)
(0.000172301 0.00106508 6.68551e-22)
(0.000287317 0.00101897 -3.6115e-22)
(5.53872e-05 -0.000199499 0)
(0.000202519 4.94159e-05 8.78156e-22)
(1.96153e-05 0.000181256 0)
(0.000316387 0.00192458 0)
(1.13046e-05 5.79561e-05 -5.31275e-23)
(0.000318605 0.00179438 1.20195e-22)
(0.000235292 0.00207742 -7.71183e-24)
(0.00032856 0.00187009 5.12285e-22)
(1.73906e-05 0.000153674 -2.07956e-22)
(0.000635904 0.000485258 -2.37586e-21)
(0.000572883 0.000797079 2.06183e-25)
(0.00014491 0.00164939 3.57162e-21)
(0.000329193 0.000877728 5.91657e-21)
(0.000156981 0.000197349 1.62138e-21)
(7.74199e-06 4.32665e-05 -7.93256e-22)
(0.000188681 0.00163239 5.42297e-21)
(0.000999081 -2.15966e-05 0)
(0.00070018 0.000817335 0)
(0.000291508 0.00163829 1.04077e-22)
(0.000341614 0.00168795 -5.56861e-22)
(0.000411824 0.00179314 -1.12132e-23)
(0.000326389 0.00178798 0)
(0.000320045 0.00192146 -3.72922e-22)
(0.000305708 0.000359746 0)
(0.00129759 0.000357546 -1.65317e-21)
(0.000297245 0.00192568 -1.10557e-21)
(0.000201448 0.00118627 -1.69691e-21)
(0.00103182 -3.09472e-05 8.75511e-22)
(0.000134092 3.25602e-06 4.08021e-22)
(0.000836925 0.000497871 0)
(0.000383123 0.00204285 3.09921e-22)
(0.00121639 0.000579062 1.28454e-21)
(0.000171502 3.87003e-05 0)
(8.14366e-06 -6.16323e-05 4.23299e-22)
(6.83224e-05 -9.62545e-06 -4.34214e-22)
(0.000378644 0.00200604 5.66815e-22)
(7.40635e-05 1.1435e-05 4.08927e-26)
(0.00042508 -0.000527898 1.89144e-21)
(0.000826537 0.00163583 7.10689e-22)
(0.000111999 8.50201e-06 -1.50256e-21)
(0.000256839 0.000161492 1.884e-22)
(0.000321214 0.00169306 -5.33577e-23)
(0.000344667 0.00192131 -7.28609e-22)
(0.000361087 0.00207818 -3.2085e-22)
(6.56241e-07 3.23396e-05 8.10172e-22)
(8.60464e-05 1.03668e-05 0)
(2.83306e-05 9.63286e-05 -1.09082e-22)
(0.000535522 0.000974407 2.54586e-21)
(0.000255856 0.00126719 -7.52032e-22)
(0.000100911 0.000340129 5.21307e-23)
(0.000393828 0.000903298 0)
(0.000278589 0.000107222 -6.4999e-22)
(9.44e-05 0.00108844 1.19474e-22)
(0.000332867 0.00178179 -3.91414e-22)
(0.000278022 0.00178485 -9.45659e-23)
(0.000308151 0.000867103 -4.26613e-21)
(0.00024608 0.00072154 -1.78432e-21)
(0.000186219 0.00123796 1.30017e-21)
(0.000242012 0.00123628 -6.58082e-22)
(0.00117889 6.68168e-05 0)
(0.000771489 -0.000242538 0)
(0.000232643 8.81765e-05 1.48037e-22)
(0.000271783 0.00160852 1.52534e-22)
(0.000104531 0.000857123 -3.65963e-21)
(0.000340479 0.00190248 5.65075e-22)
(3.08852e-05 -0.000199346 -4.24683e-22)
(0.000380016 0.00203136 0)
(0.000174817 0.000803467 2.6008e-21)
(0.000319757 0.00180444 0)
(0.000314706 0.00179052 -4.83365e-23)
(0.000981626 5.80571e-06 0)
(3.82124e-05 -0.000109273 -4.46052e-22)
(0.000301787 0.00178441 3.07679e-22)
(0.000326852 0.00179531 2.83455e-23)
(0.000242019 0.00124653 -5.23876e-22)
(0.0007064 0.000468317 3.74585e-21)
(0.000624807 0.000734242 4.27935e-22)
(0.000295855 0.00180198 2.55579e-22)
(0.000284159 0.0016842 0)
(0.000363039 0.00202317 -1.51767e-25)
(0.00024754 0.00156613 -1.45864e-24)
(0.00101073 5.79062e-05 1.05537e-21)
(0.000179094 0.0013912 2.07948e-21)
(-8.20755e-08 6.70207e-05 -8.02864e-22)
(2.8523e-05 0.000335872 0)
(0.00026561 0.00129471 6.68022e-24)
(0.00033042 0.00172132 1.2776e-22)
(0.000281528 0.000263445 -2.29253e-21)
(0.000849981 8.0278e-05 0)
(0.000364368 0.00191916 0)
(0.000300289 0.00185214 -4.89783e-23)
(0.00031431 0.00181636 1.28864e-22)
(0.000633222 0.00050225 -6.28064e-24)
(0.000238745 0.00127453 1.39912e-21)
(0.000292954 0.00178076 -4.73655e-22)
(3.45123e-05 -2.79941e-06 -1.38284e-21)
(3.62645e-05 -1.15763e-06 0)
(0.000924934 0.000742103 2.53873e-21)
(0.000238909 0.00129579 -1.2372e-21)
(0.000241806 0.00123973 -6.32193e-22)
(1.16742e-05 7.27815e-05 -9.78883e-22)
(0.00036767 0.00201871 2.08695e-23)
(-1.61359e-08 5.53364e-05 1.66754e-21)
(0.0009163 0.000147692 -4.2709e-22)
(0.000954699 7.72428e-06 9.24491e-22)
(2.69964e-05 -7.76671e-05 -6.66419e-24)
(0.000281267 0.00181538 0)
(0.000163748 0.00109202 -1.21611e-21)
(0.000333205 0.00168242 -1.02062e-24)
(0.000325649 0.00201034 -1.01291e-22)
(0.000371443 0.00201778 6.22508e-23)
(0.000219417 6.00059e-05 0)
(0.000307701 0.00165214 -5.7605e-22)
(0.000315173 0.00172662 0)
(2.44802e-06 0.000115464 0)
(0.000315981 0.00179027 3.65492e-22)
(0.000325311 0.00178082 1.05999e-22)
(0.000358718 0.00195242 2.44443e-22)
(0.000338459 0.00178661 0)
(3.12016e-05 7.20559e-07 -1.86282e-21)
(0.000226769 0.00125252 4.05289e-22)
(0.00033093 0.00180726 -3.16271e-22)
(0.000923963 -4.66211e-05 -2.36405e-21)
(0.000320365 0.00190359 9.6379e-22)
(0.000324944 0.00178386 -2.84661e-22)
(0.000382311 0.00202944 3.55652e-22)
(0.000905071 5.77161e-05 0)
(0.000244356 0.0012539 -1.63477e-22)
(0.000214647 0.0012375 -2.65572e-22)
(0.000326604 0.00203848 7.27625e-24)
(0.00029181 0.00179254 -1.43244e-22)
(0.000242572 0.000223011 -4.39721e-22)
(0.000874996 -5.9708e-05 -1.59912e-21)
(0.000243648 0.00199981 6.04679e-22)
(0.000188918 0.00125086 0)
(0.000351148 0.00202951 -4.84566e-22)
(0.000344693 0.00194716 1.44227e-22)
(3.94625e-05 -1.74383e-06 -1.0876e-26)
(0.000679817 0.00126209 -1.30425e-21)
(6.88585e-05 -3.25969e-06 2.11709e-22)
(3.08778e-05 8.21324e-05 2.71033e-22)
(0.000347379 0.00192775 4.05325e-22)
(3.71137e-05 0.000398722 -1.31206e-21)
(0.000394499 0.000759898 -3.0123e-21)
(0.000333989 0.00177516 0)
(0.000204847 0.00106513 -2.28632e-22)
(0.00033092 0.00178642 -3.08223e-21)
(0.00033737 0.00179551 -1.41034e-22)
(0.000148166 0.00164058 -3.04813e-23)
(0.000214971 0.00123352 0)
(0.000323124 0.00182065 0)
(0.000356279 0.00203626 5.11409e-22)
(0.000237369 0.0012679 -5.58336e-22)
(3.2964e-05 -3.03292e-06 7.39721e-22)
(0.000335003 0.00092039 0)
(0.000352335 0.00191276 -2.50164e-22)
(0.000315797 0.000203112 2.07048e-21)
(0.000320234 0.00200873 5.53548e-23)
(0.000342856 0.00191973 -5.41048e-22)
(0.000343997 0.00202192 -2.68163e-22)
(0.000362033 0.002026 4.99811e-24)
(0.000235512 0.000138626 6.92333e-22)
(0.000367957 0.00191505 1.01851e-22)
(0.000205589 0.00127961 1.90239e-22)
(0.00100529 4.98499e-05 -9.36864e-22)
(-0.000156554 0.00129278 -1.20233e-21)
(0.000283863 0.00167262 -2.53329e-22)
(0.000261203 0.000663008 0)
(0.00035064 0.00192438 3.79953e-22)
(0.000199505 0.000109674 -2.00343e-22)
(2.71536e-05 0.000152225 -1.8316e-22)
(0.000174328 1.14679e-05 -2.8568e-23)
(2.26456e-05 -7.30017e-06 2.45348e-22)
(0.000375607 0.00202657 -2.14715e-22)
(0.000388952 0.00216125 1.55103e-22)
(3.10818e-05 0.000179823 2.12832e-22)
(0.000324273 0.0018863 -5.65369e-22)
(0.000633654 0.00147142 -7.78034e-22)
(0.000347037 0.00192635 0)
(0.00020109 0.00123053 5.40285e-24)
(0.000228617 0.00126603 1.98844e-24)
(3.55166e-05 0.00021118 2.65346e-22)
(1.07277e-05 6.5829e-05 8.27306e-22)
(0.00037561 0.00194742 4.54684e-22)
(0.000350172 0.00202041 0)
(0.000230227 0.00207311 -2.60672e-22)
(0.000533155 0.00164579 -1.2143e-22)
(0.00031921 0.00179029 3.13321e-22)
(0.000709845 0.000831771 -6.27243e-22)
(2.71052e-05 0.000569406 -8.80326e-23)
(0.000335414 0.00170178 0)
(4.15233e-05 -2.65861e-06 1.35539e-21)
(0.000314523 0.00170018 0)
(4.25891e-05 0.000249131 1.96986e-22)
(0.000344951 0.00192089 -3.80234e-22)
(0.000350452 0.00202299 -3.75842e-22)
(0.000360315 0.00204132 -4.0476e-22)
(0.000279117 0.00193784 2.65563e-23)
(0.00032993 0.000548617 1.7345e-21)
(9.39442e-05 1.23602e-05 3.37233e-24)
(2.5678e-05 -0.000176878 -1.65939e-24)
(0.000793319 0.000809185 -2.30338e-21)
(0.000207389 0.00124752 -7.27218e-23)
(0.000323712 0.00168764 1.76942e-22)
(0.000419238 0.00210276 -6.41985e-22)
(0.000339864 0.00191754 0)
(0.000242611 0.00125205 -1.05834e-22)
(0.000354378 0.000683429 0)
(0.000203602 0.00123823 -6.48247e-22)
(3.34879e-05 -9.75762e-05 4.3186e-22)
(0.000300333 0.00177155 0)
(4.04657e-05 -8.28632e-06 2.3279e-22)
(0.000133705 0.000175972 4.95187e-22)
(0.00106099 0.000305718 -6.69107e-24)
(0.000339289 0.00191344 -1.15905e-21)
(0.000985044 0.000112018 2.57194e-21)
(0.000205883 0.00122892 1.9871e-22)
(0.000212349 0.00120478 -8.84076e-23)
(0.000352002 0.0020206 8.97622e-22)
(0.00036197 0.00202919 -4.13595e-22)
(9.24106e-06 0.000300087 0)
(3.3141e-05 2.40776e-06 -2.73533e-21)
(0.000285137 0.00181284 0)
(0.000345994 0.00192133 6.27967e-22)
(0.000347375 0.00191472 0)
(0.000178169 0.00109717 5.29194e-23)
(0.000309725 0.00177065 0)
(0.000279747 0.00181924 0)
(0.000270034 0.000554713 0)
(0.000310797 0.00177863 4.8464e-22)
(0.000304299 0.00166554 -1.23741e-22)
(0.000424257 0.000554259 -1.02448e-21)
(0.000249541 0.00144018 5.89425e-22)
(0.00105904 0.00148525 9.30942e-22)
(0.000305804 0.00178834 -6.43717e-22)
(0.00020464 0.00121511 9.4108e-22)
(0.000215681 0.00122808 -5.11884e-22)
(0.000317915 0.00179275 2.03655e-22)
(0.00014706 0.00190771 -1.34521e-23)
(0.000810594 0.000704463 -1.46036e-21)
(0.000966703 0.000395825 -1.17271e-21)
(0.000389334 0.00203404 0)
(0.00028361 0.00179196 3.20066e-22)
(2.79426e-05 -9.24396e-06 -3.42022e-22)
(0.000219046 0.000202765 6.13885e-22)
(0.000191003 0.00110428 -6.10692e-22)
(0.000339739 0.00192673 -1.34715e-21)
(0.000189603 0.00192674 1.93211e-23)
(0.000205597 0.00122772 -4.82027e-22)
(0.000300668 0.00178744 -1.05204e-24)
(0.000955338 -7.37144e-06 0)
(0.000283 0.00195611 0)
(0.000595629 0.000504886 -1.03239e-21)
(0.000252565 0.00187 0)
(0.000315239 0.00178713 0)
(0.000327684 0.00185033 1.27457e-22)
(0.000341009 0.00188986 5.77238e-22)
(0.000207088 -0.00012626 4.77822e-22)
(0.000198501 0.000763892 -1.21728e-21)
(3.15054e-05 -1.3164e-05 0)
(1.75717e-05 -6.98609e-05 8.50903e-22)
(2.73554e-05 5.06689e-06 0)
(0.000305185 0.00179513 6.26891e-23)
(0.000292704 0.00178536 -3.41418e-23)
(0.000272373 0.00169571 -2.27186e-22)
(0.000317717 0.00178573 6.05442e-23)
(0.000178769 7.67247e-05 -1.99934e-22)
(7.34582e-06 0.000238719 1.24685e-22)
(0.000598524 0.000328191 -2.55814e-21)
(0.000184856 0.00125351 1.08403e-21)
(0.000311446 0.00183126 0)
(0.000334372 0.00170326 -5.35305e-22)
(0.000418551 0.00109704 7.23667e-23)
(0.000540809 0.000728866 2.93687e-22)
(0.000149267 0.00058864 1.08196e-21)
(0.000997055 0.000678868 9.57058e-22)
(2.10055e-05 -5.58089e-06 -2.38335e-22)
(1.00041e-05 -3.24116e-05 0)
(3.99369e-05 -1.87336e-05 -3.52956e-22)
(2.15748e-05 3.76043e-06 -1.36452e-21)
(0.000154844 0.000358717 4.6508e-22)
(0.000213682 0.00107805 -3.09978e-22)
(0.000303747 0.00179287 8.41686e-22)
(0.000376881 0.000528029 4.80133e-22)
(9.34625e-05 0.000735069 1.05479e-21)
(0.00013419 0.00021202 1.19894e-21)
(0.000958703 0.000769344 -1.49761e-21)
(0.000704792 0.000891625 3.47141e-21)
(0.000217696 7.68143e-05 0)
(0.000245321 0.000233682 -1.80318e-21)
(0.000298952 0.00178219 -1.5343e-24)
(0.000337526 0.000591601 -1.42937e-21)
(0.000186394 -0.000119415 -6.62136e-22)
(0.000340074 0.00200906 2.25858e-23)
(7.33093e-06 3.8318e-05 1.69265e-21)
(0.000332062 0.00179664 -3.49167e-23)
(0.000966507 1.93625e-07 -5.7944e-23)
(0.000953392 -6.53856e-06 -9.33863e-22)
(0.00020689 0.00127735 -8.85323e-22)
(-3.70442e-05 0.00119557 4.43083e-23)
(3.65835e-05 2.89434e-07 0)
(0.000279872 0.000880377 1.86648e-24)
(5.40669e-06 0.000204934 1.03093e-22)
(0.000171568 0.00117237 0)
(0.000644813 0.000241283 1.80826e-21)
(0.000397072 0.000890132 5.84025e-24)
(0.0002506 0.000424968 3.7799e-21)
(0.000501605 0.00128017 -1.5792e-21)
(3.99678e-05 -2.23868e-05 2.30694e-22)
(0.000144043 -9.8929e-05 -2.18854e-21)
(0.000487683 0.000883131 2.25078e-21)
(0.000384214 0.000959992 0)
(0.000631428 0.000346194 0)
(0.000113718 0.000165821 9.21668e-22)
(0.000338096 0.00176727 1.36953e-22)
(0.000334337 0.00167744 -1.66091e-21)
(0.000357407 0.00204051 0)
(0.0004022 0.000420054 2.77684e-21)
(0.000117271 0.000273023 0)
(0.000258948 0.00165804 0)
(0.00107961 0.000245125 -1.04797e-21)
(0.000157096 -0.000107376 1.37595e-21)
(0.00032103 0.00184272 0)
(2.24776e-05 -1.34577e-05 0)
(1.26871e-06 9.62955e-05 0)
(3.51298e-05 -1.46426e-05 5.11197e-23)
(0.000208621 9.67847e-05 -5.69537e-22)
(0.000861936 8.66574e-05 -9.79814e-22)
(0.000935708 0.00102052 2.48689e-23)
(0.000309904 0.00174101 -2.76579e-23)
(0.000351706 0.000552468 -6.62826e-22)
(0.000278579 0.00177081 -8.62242e-22)
(0.000343686 0.00200582 7.07296e-23)
(0.000991824 7.23337e-05 -4.37e-22)
(0.000276334 0.00183245 0)
(0.00119381 0.000702475 4.46214e-22)
(1.45937e-05 3.75675e-06 3.68652e-22)
(0.000200445 0.000420505 -9.84784e-22)
(0.000128394 0.000187441 4.06138e-25)
(4.74671e-06 0.000175262 -2.09638e-22)
(0.000872865 0.000375161 2.59153e-21)
(0.000188818 0.00122528 6.27301e-24)
(0.000943003 0.00132974 0)
(0.000317393 0.0018395 -1.66204e-22)
(2.86586e-05 6.74137e-06 0)
(0.00133805 7.34278e-05 0)
(0.000426182 0.000904187 -2.57409e-21)
(0.000209236 0.0010836 1.23061e-22)
(0.000286725 0.0017589 1.91388e-21)
(0.000353979 0.00176318 -1.2484e-22)
(0.000967785 0.000376902 -1.89957e-21)
(3.66874e-05 -2.09804e-05 -1.54924e-22)
(4.3121e-05 -0.000122281 4.34362e-22)
(3.83661e-05 -9.12446e-06 3.06512e-22)
(0.00116662 0.00013359 4.30638e-21)
(0.000666539 0.000279133 0)
(0.000158645 2.06203e-05 9.08341e-22)
(0.000791445 1.28482e-05 8.32984e-22)
(4.00672e-05 -1.50275e-05 -5.76813e-26)
(0.00048123 -0.000111897 -1.59018e-21)
(0.000966856 0.000116333 -6.38141e-22)
(1.32814e-05 9.80773e-05 0)
(0.000523299 6.03465e-05 -1.79835e-21)
(3.01406e-05 -8.70942e-05 0)
(0.000355764 0.00203617 -1.02776e-23)
(0.000306877 0.00178114 4.37728e-22)
(9.41372e-05 -0.000519584 2.4091e-21)
(4.16913e-06 0.000148976 0)
(0.00017366 0.00103605 -6.65058e-22)
(0.000313046 0.00187747 -1.00887e-22)
(0.00032057 0.00179821 -2.01498e-22)
(0.000939421 0.000238479 -9.83451e-23)
(0.000325849 0.00168091 6.45762e-23)
(0.000161577 0.00104358 -2.34226e-21)
(2.16088e-05 -1.72132e-05 -1.41913e-21)
(0.000114879 -8.56363e-05 8.96517e-22)
(0.00134435 0.000310843 -5.31179e-22)
(0.000330655 0.00167617 2.03129e-22)
(0.000348284 0.00200654 8.96138e-22)
(0.000321863 0.00179301 5.42098e-23)
(0.000971661 0.000118026 1.24889e-21)
(0.000659518 0.000815709 -1.84017e-21)
(2.95484e-05 2.15907e-06 7.81008e-22)
(0.000417425 0.00199013 1.28632e-21)
(0.000991854 -3.66362e-05 5.79676e-22)
(0.00033222 0.0017777 -5.81588e-23)
(0.000295379 0.00179127 5.59627e-23)
(0.000361068 0.00204504 -1.31151e-23)
(0.000192111 0.00180847 -2.10109e-24)
(3.28691e-05 1.0685e-06 1.56955e-21)
(2.40817e-05 -6.91723e-05 6.70953e-24)
(0.000306569 0.00166182 -3.9159e-22)
(0.00102728 0.000218628 0)
(0.00130089 0.000522206 5.63048e-22)
(1.0022e-05 -9.2791e-06 -2.67515e-22)
(0.00031945 0.000805498 -2.60328e-21)
(0.000965991 0.000121899 -2.45935e-21)
(0.000170533 0.00157903 5.85169e-21)
(0.000755577 0.000749435 1.26268e-21)
(0.000348555 0.00202864 -5.19806e-22)
(0.000264835 0.00179039 -7.56152e-24)
(0.000298984 0.00178134 0)
(0.000352176 0.000869076 8.39431e-22)
(0.00101014 1.38996e-05 0)
(0.000981782 4.58823e-06 -4.3536e-22)
(0.000401684 0.000868812 2.06817e-21)
(8.65343e-05 1.7076e-05 0)
(0.000105531 0.000235878 -2.87163e-22)
(0.000445277 0.000727774 -1.97321e-21)
(0.000304565 0.00178715 -2.17051e-23)
(0.000321141 0.00179948 -8.69539e-24)
(0.00101406 -8.33426e-06 0)
(0.000751945 0.00045265 -1.09283e-21)
(0.00035807 0.00202513 5.11965e-22)
(3.6785e-05 0.00185163 -1.62034e-21)
(0.00112489 9.04771e-05 1.80695e-21)
(0.000301846 0.00180085 -2.16829e-21)
(2.83595e-08 8.83594e-05 0)
(0.000978241 4.92418e-05 8.56792e-22)
(0.00027082 0.000643176 -4.86353e-22)
(0.000131642 3.52669e-05 -1.75167e-21)
(0.00106175 6.93931e-05 0)
(0.000382668 0.00093729 -2.22305e-21)
(0.000243851 0.000981724 1.37093e-21)
(0.00037392 0.000869855 9.39713e-22)
(0.000488755 0.0022124 0)
(0.000471718 0.00102449 0)
(4.28171e-05 -2.59165e-05 -2.82083e-22)
(0.00019053 0.00121553 -3.95843e-23)
(0.000987606 -2.15426e-05 8.68797e-22)
(0.000295634 0.00178904 4.05192e-22)
(0.00059063 0.00168074 -9.90069e-22)
(0.000283787 0.000837537 8.75271e-22)
(0.000608056 0.000349538 2.9326e-21)
(1.58204e-05 -6.2057e-05 -1.69414e-21)
(0.00102079 -2.81945e-06 -5.24722e-22)
(5.6305e-05 0.000725337 0)
(0.000215512 0.000427668 -1.91446e-21)
(0.000616642 7.5696e-05 1.58602e-21)
(0.00031587 0.000907048 -3.14247e-21)
(0.000162114 0.000621116 -6.53765e-22)
(0.000361013 0.00205038 1.46778e-22)
(0.000565482 0.000654703 0)
(0.00108083 0.000656957 -1.42064e-21)
(0.000130072 -9.42389e-05 -9.40258e-22)
(7.97369e-05 0.000883602 -3.55355e-22)
(0.000314207 0.00179463 0)
(0.000340679 0.00201739 0)
(0.000886077 0.00222612 -6.81003e-23)
(0.000991306 -4.3721e-05 0)
(2.28641e-05 -9.66085e-06 0)
(0.000139051 0.000387843 -7.84022e-22)
(0.000172786 2.48323e-05 -8.99233e-22)
(0.00026697 0.0016947 -2.63113e-24)
(0.000334946 0.000866008 1.6812e-21)
(0.000143148 4.01155e-05 8.66699e-22)
(0.00035267 0.00191849 -1.58625e-22)
(0.000363434 0.00211155 -1.58804e-22)
(0.000766438 8.80708e-05 3.04192e-22)
(0.000418996 -0.000111445 -1.96465e-22)
(0.00029836 0.000929048 7.28996e-22)
(3.39987e-05 3.70207e-06 -1.57987e-21)
(0.000436631 0.00198175 -3.14358e-22)
(0.000366262 0.000982759 4.19785e-22)
(0.000394993 0.000876009 -1.06023e-21)
(0.000330059 0.00179659 6.6899e-23)
(0.000383483 0.00188991 7.08064e-22)
(0.00051533 0.000905123 -3.8938e-21)
(0.000357747 0.00202949 -1.88386e-21)
(0.000116206 -2.35204e-05 0)
(0.000932506 0.00042998 1.19267e-21)
(0.000376514 0.000917949 1.84114e-21)
(0.000714781 0.000798358 1.88828e-21)
(0.000298395 0.00178715 1.55994e-21)
(0.000498869 0.000728904 4.98782e-22)
(0.000711114 0.000815583 1.24626e-21)
(0.000599654 0.00063831 9.48675e-22)
(0.000983965 -6.16654e-05 -9.93443e-23)
(0.0001002 0.000235139 1.61722e-22)
(9.13922e-05 -7.04011e-05 -1.6701e-21)
(3.3959e-05 3.80447e-06 1.53412e-21)
(0.000248872 0.00180672 6.18795e-22)
(0.000405008 0.00201558 -1.25824e-21)
(0.00103792 0.000845558 3.41298e-21)
(0.000415502 -0.000261868 -2.80157e-22)
(0.000234191 0.00170291 8.68437e-22)
(0.000301001 0.00179219 -5.46225e-22)
(0.000434826 0.000357309 -2.38289e-21)
(0.000342458 0.00177919 1.20639e-24)
(4.20329e-05 0.000637378 0)
(3.23854e-05 4.24393e-06 -1.24102e-21)
(0.000341655 0.00167359 1.21421e-21)
(0.000361353 0.00205872 -1.67352e-22)
(0.000491403 0.002252 0)
(1.08183e-05 -3.73359e-05 2.67547e-23)
(0.000438354 0.000936773 7.23314e-22)
(0.000353624 0.00105076 1.33552e-21)
(0.000714519 0.000831522 0)
(0.00070475 0.000751936 1.86325e-21)
(2.28368e-05 -1.9707e-05 3.16711e-22)
(0.00091469 0.000382013 0)
(0.000670539 0.000799539 -1.738e-21)
(0.000330827 0.00179984 0)
(3.88455e-05 9.8601e-06 -1.04556e-21)
(0.000564125 0.000871864 -2.67176e-21)
(0.000380181 -0.000733199 0)
(0.000346772 0.00191759 -5.16416e-22)
(1.38124e-05 0.00147073 -1.38685e-21)
(0.000326018 0.00167133 -7.01486e-22)
(4.98702e-05 -0.000291934 1.33677e-21)
(0.000418584 0.000843307 2.30047e-25)
(3.18631e-05 6.79876e-06 0)
(0.00067685 0.000855332 -2.70808e-21)
(0.00100281 -3.89583e-06 9.59073e-22)
(0.000602898 0.000474393 -1.34528e-21)
(0.000300091 0.00176656 5.40012e-23)
(0.000625099 0.000444605 2.42656e-21)
(0.00057931 0.000108412 5.9438e-22)
(0.000155478 0.000419182 -2.627e-21)
(0.000309306 0.00181493 5.14304e-22)
(0.00102071 0.000248014 -1.79076e-21)
(3.8016e-05 7.23652e-06 1.79442e-21)
(0.000698662 0.000863391 0)
(0.000388702 0.000938518 1.05452e-21)
(0.000718747 0.000597606 -9.61502e-22)
(2.61274e-05 -9.56208e-06 0)
(0.000267402 0.00178797 -1.48794e-21)
(7.13576e-05 -8.15791e-06 5.52106e-22)
(0.000287634 0.00168055 -1.02385e-25)
(2.61338e-05 1.00331e-05 1.65046e-21)
(0.000763791 -0.000116238 1.36727e-21)
(0.000383507 0.0019005 -1.9705e-21)
(0.0002968 0.00178022 3.2812e-22)
(0.000298708 0.00178396 -1.89699e-22)
(0.000985267 2.2258e-05 -3.47988e-21)
(0.000376689 0.00203418 9.14784e-22)
(0.000282431 0.000747652 -1.26629e-21)
(0.000594008 0.00215301 5.76158e-22)
(0.000408697 0.000648535 2.24883e-21)
(0.000821025 0.000669137 -1.22198e-21)
(0.000554797 0.000344227 -1.19099e-21)
(0.0002955 0.00178948 -1.23175e-22)
(0.000266035 0.000754152 3.29925e-21)
(0.000157446 3.33481e-05 -2.71712e-23)
(0.000311487 0.00176995 4.78145e-22)
(1.8718e-05 0.000544152 4.94789e-23)
(0.000381422 0.00158201 4.63527e-21)
(0.00120605 0.000128629 -2.83717e-21)
(0.000901621 0.00215035 -5.13477e-22)
(0.000122892 0.00182793 7.4674e-22)
(0.00140935 6.27767e-05 0)
(3.83399e-05 6.19059e-06 2.41908e-21)
(9.42444e-06 -2.79284e-05 -6.35059e-22)
(9.28546e-05 0.000674294 -7.61975e-22)
(0.000232461 0.000621158 1.17871e-21)
(0.000551438 0.000372589 -1.89636e-21)
(0.000291037 0.00179636 9.0146e-24)
(0.000363043 0.00203694 0)
(0.000692395 0.000816415 -1.84563e-24)
(0.000550041 0.000681875 -5.34895e-22)
(0.000371459 0.00203051 5.46965e-22)
(3.30283e-05 0.00064133 1.23177e-21)
(9.31292e-06 -2.39372e-05 4.17621e-22)
(0.000571237 0.000305815 2.91438e-21)
(0.000337702 0.00200409 0)
(0.000680067 0.000670635 1.41185e-21)
(0.000133854 0.000759427 -2.45338e-21)
(0.000351652 0.00221814 1.02658e-21)
(0.000355314 0.000524996 9.64398e-22)
(2.35946e-05 -2.56666e-05 -3.18443e-22)
(5.60421e-05 3.98925e-05 4.31317e-22)
(0.000553599 0.000636998 -1.87143e-21)
(8.5439e-05 0.00105442 -2.38836e-21)
(0.000770976 7.56233e-05 -1.82326e-22)
(0.000261517 0.000590142 -2.01831e-21)
(0.000361437 -0.000261061 0)
(0.000339698 0.00191544 -6.94249e-22)
(0.000779761 7.28886e-05 3.23723e-23)