/*--------------------------------*- C++ -*----------------------------------*\
  =========                 |
  \\      /  F ield         | OpenFOAM: The Open Source CFD Toolbox
   \\    /   O peration     | Website:  https://openfoam.org
    \\  /    A nd           | Version:  7
     \\/     M anipulation  |
\*---------------------------------------------------------------------------*/
FoamFile
{
    version     2.0;
    format      ascii;
    class       volVectorField;
    location    "65";
    object      U;
}
// * * * * * * * * * * * * * * * * * * * * * * * * * * * * * * * * * * * * * //

dimensions      [0 1 -1 0 0 0 0];

internalField   nonuniform List<vector> 
591
(
(0.00082753 -2.65779e-05 1.21809e-18)
(0.000815839 -2.40837e-05 -6.63985e-19)
(0.000857109 -1.16346e-05 5.68817e-20)
(0.000857131 -8.71713e-06 -1.49133e-19)
(0.000840618 4.63844e-06 2.25594e-19)
(0.00080185 -4.08822e-05 -1.39638e-19)
(0.000558075 -0.000301975 8.06492e-19)
(0.000802783 3.99921e-06 2.07821e-18)
(0.00573477 0.00249954 9.8777e-19)
(0.00079784 -1.36926e-05 2.45494e-18)
(4.98051e-05 0.000170402 1.21838e-18)
(0.000928325 0.00137588 9.40829e-21)
(0.000798711 5.38705e-06 1.3254e-18)
(0.00160123 0.00238851 -7.87681e-19)
(0.000803238 2.93436e-06 -4.43138e-19)
(6.91379e-05 -0.000207005 2.42119e-22)
(0.000136163 0.000677301 7.05021e-19)
(0.000818865 6.24722e-05 -4.89214e-19)
(0.00193161 0.000392098 4.73647e-19)
(0.00135754 0.000254592 -2.47133e-19)
(0.000833399 -3.98374e-06 3.72419e-19)
(0.00340013 0.00655931 -8.1532e-20)
(2.79865e-05 7.06035e-05 2.70969e-19)
(0.000834757 -1.37255e-05 -4.50909e-19)
(1.17849e-05 -1.65249e-05 3.58964e-19)
(0.00077101 3.21203e-05 0)
(9.29099e-05 0.000474979 1.59975e-19)
(0.00054136 1.25712e-05 -1.7886e-19)
(0.000753142 4.82166e-05 1.14964e-18)
(0.000812419 4.67157e-05 5.91628e-19)
(5.83184e-05 -3.47314e-06 -4.08668e-24)
(3.3673e-05 -4.70253e-05 3.52212e-19)
(3.73446e-05 -3.15463e-06 -4.64271e-20)
(4.6128e-05 -1.18111e-05 0)
(5.5288e-05 -1.3265e-05 1.13158e-18)
(0.00117448 0.000131014 1.79936e-19)
(3.18871e-05 -5.51065e-06 4.47189e-20)
(0.000826787 6.19784e-06 3.03919e-23)
(2.77499e-05 4.42469e-05 2.66054e-19)
(1.722e-05 -0.000104969 -8.54892e-19)
(0.000631879 -0.000204087 9.60312e-19)
(2.56811e-05 -6.94197e-06 4.54869e-20)
(0.000800205 5.90396e-07 -1.5807e-18)
(0.000830102 4.05458e-05 -6.90932e-19)
(1.76e-05 -8.17559e-06 0)
(5.56217e-05 7.2535e-06 8.51951e-20)
(0.00134503 0.00450293 8.9301e-19)
(7.68279e-05 1.66349e-05 8.63702e-20)
(0.000800007 1.69529e-05 0)
(0.000380971 -0.000202158 6.77668e-19)
(0.000380551 0.000274216 5.11951e-21)
(0.000393038 5.12542e-05 -1.00389e-18)
(0.0063484 0.0109419 -7.68356e-19)
(0.00622523 0.0107972 1.52761e-20)
(0.00561463 0.0103802 1.4556e-18)
(0.000809607 2.64391e-05 0)
(6.7661e-05 3.15642e-05 0)
(0.000317632 1.61701e-05 1.40755e-23)
(6.37192e-05 1.09398e-05 -3.4649e-19)
(0.000815637 -8.15192e-06 0)
(0.000634185 2.87593e-05 3.17598e-19)
(0.000832181 7.3366e-06 2.20868e-18)
(0.000797895 2.75232e-05 -5.4245e-19)
(0.000799201 1.5621e-05 -3.15781e-19)
(0.00171232 0.000481199 5.42512e-19)
(0.000796988 1.23644e-05 -1.15463e-18)
(0.000826899 1.69644e-05 -5.24252e-19)
(8.18248e-05 -1.9478e-06 -1.73427e-19)
(0.000688893 0.00226349 0)
(0.000834645 3.57614e-05 0)
(0.000776342 1.59863e-05 -1.39179e-18)
(3.8559e-05 1.63488e-05 0)
(0.000287961 0.00027123 3.26868e-19)
(4.1218e-05 -1.75501e-05 0)
(4.23816e-05 -5.96955e-06 1.59487e-19)
(1.69675e-05 -4.56502e-05 -3.36704e-20)
(0.000788527 7.57955e-05 2.46957e-19)
(4.48648e-05 1.09866e-05 0)
(0.000798895 5.66376e-05 4.47411e-19)
(0.000770059 0.000293751 2.10746e-19)
(0.000964788 6.19389e-05 -3.9797e-20)
(4.34705e-05 2.34808e-05 -4.51904e-20)
(5.84007e-06 -2.44305e-05 0)
(0.000432183 0.000217387 1.70198e-19)
(2.85477e-06 2.34943e-05 0)
(0.000788506 3.61864e-05 -6.0727e-19)
(0.000603571 -0.000120708 0)
(6.57129e-05 -1.29237e-06 -1.74495e-19)
(3.54605e-06 -3.34666e-05 0)
(0.000826359 0.000242432 -3.41297e-19)
(3.92472e-06 -1.45928e-05 0)
(0.000422207 0.000323606 -1.29684e-23)
(0.000527933 0.000112452 0)
(0.000804752 4.56936e-05 -3.33493e-24)
(2.76975e-06 1.49781e-05 -4.21752e-20)
(0.000452253 -1.12414e-05 1.76372e-18)
(0.0010237 7.2251e-05 4.16073e-20)
(0.000841368 4.42208e-05 6.41116e-22)
(0.000737159 0.000657545 2.6952e-19)
(6.64422e-06 4.99358e-05 0)
(1.15071e-06 -5.15131e-05 -3.11994e-19)
(-1.77338e-05 -9.28054e-05 -1.10052e-18)
(3.95274e-06 7.94468e-05 -5.96349e-19)
(0.000627429 -1.94077e-05 0)
(7.99758e-06 0.000104414 0)
(0.000808267 2.33739e-05 2.1878e-18)
(0.000785477 2.28966e-05 1.53242e-18)
(0.000422557 -7.62882e-05 0)
(4.31414e-05 0.000219587 -8.95465e-19)
(-4.46618e-07 0.000171535 4.96647e-19)
(6.29784e-05 0.000414535 6.25142e-19)
(0.000304523 8.48673e-05 -9.3719e-19)
(0.000803084 1.98746e-05 1.3735e-19)
(0.00026174 -3.84156e-05 5.31272e-19)
(4.15317e-06 3.34289e-05 0)
(2.26705e-05 0.000288923 -1.09394e-18)
(0.000319496 0.000324549 -1.61714e-19)
(2.09795e-06 -4.17895e-05 1.46507e-19)
(0.000670162 0.000813494 0)
(0.000367292 0.000388569 5.74453e-20)
(0.000814339 1.37421e-05 1.07034e-18)
(0.000799147 1.3973e-06 -2.71386e-18)
(6.27774e-06 -5.07004e-05 0)
(0.000677982 -3.18015e-05 -1.12328e-19)
(0.000320497 -0.000108478 1.24335e-18)
(0.00264739 0.00080471 -3.36183e-19)
(5.17583e-06 0.000134768 -6.13165e-19)
(3.9829e-06 0.00016435 1.61934e-18)
(0.000718432 2.17944e-05 -3.89944e-20)
(6.42097e-05 -1.31056e-05 -7.50236e-19)
(0.000805005 2.73267e-05 -3.88041e-19)
(0.000766891 2.61534e-05 -4.10437e-20)
(3.81916e-05 0.000335011 -5.96895e-19)
(0.000484247 6.80172e-05 -4.93974e-19)
(4.92784e-05 -3.22733e-06 1.56168e-19)
(0.000831439 2.67194e-05 -1.09465e-18)
(0.00156629 0.000238074 -1.13701e-18)
(4.0667e-06 6.38399e-05 4.96426e-19)
(0.000808921 2.61248e-05 -4.95444e-19)
(0.000908542 0.000542125 -7.85168e-20)
(0.000144104 0.000793717 0)
(0.000579401 6.50832e-05 0)
(0.000275094 5.48467e-05 -1.60982e-18)
(6.35525e-05 5.89368e-05 -1.37421e-18)
(3.10537e-05 2.07783e-05 0)
(0.00424706 0.00740008 -1.01945e-20)
(0.00422549 0.00737194 3.16348e-20)
(0.00442771 0.00757471 -4.95715e-21)
(0.00420673 0.00773548 0)
(0.00419909 0.00760127 5.77091e-19)
(0.00424428 0.00740138 -9.19654e-20)
(0.00421042 0.00804327 4.84325e-19)
(0.0042893 0.00742185 0)
(0.00420864 0.00853654 6.16598e-19)
(0.00432568 0.00745024 2.23847e-19)
(0.000821911 4.85553e-06 -1.3737e-18)
(0.000767282 5.26939e-05 0)
(0.000214099 5.41155e-05 1.27704e-19)
(5.06827e-05 1.60451e-05 8.71925e-20)
(7.81357e-05 4.51612e-05 6.8008e-19)
(0.000105981 4.16371e-05 -3.41699e-19)
(0.000100458 5.8072e-06 0)
(4.85698e-05 5.0163e-06 8.1845e-20)
(0.00020592 0.000133659 0)
(0.000165812 4.32162e-05 -5.24328e-20)
(0.000342601 0.000223218 -5.09291e-21)
(5.60574e-05 4.32205e-05 -4.37694e-19)
(9.08388e-05 2.76531e-05 -8.52548e-20)
(9.04872e-05 6.22048e-05 1.31206e-21)
(0.00025472 0.000366902 -6.66218e-19)
(0.00010668 0.00100526 0)
(4.21859e-05 5.28915e-05 3.43092e-19)
(0.000201372 0.00175277 0)
(0.000207514 0.000254073 7.04711e-19)
(3.83219e-05 -3.87733e-06 1.11505e-19)
(0.000481688 0.000164616 -1.72315e-19)
(0.000758965 2.44516e-05 -1.92431e-18)
(4.31144e-05 -1.19411e-06 4.44092e-24)
(0.000148611 2.52012e-05 2.24609e-19)
(0.000243643 9.34572e-05 -8.99404e-20)
(0.000881089 0.000706104 3.34965e-19)
(0.000719264 0.00163383 -9.23635e-21)
(0.000393198 0.00142476 -9.39448e-21)
(0.00102335 0.00054879 0)
(0.00010288 -1.5221e-05 1.11881e-18)
(0.000116125 1.62335e-05 -4.43188e-20)
(0.000452498 -0.000287618 -1.13612e-18)
(0.000812601 3.79449e-05 0)
(0.000181893 3.38602e-06 3.6333e-19)
(0.000300352 0.00131431 0)
(0.00107522 0.000772685 -7.30254e-20)
(0.000826158 3.41206e-05 -1.86541e-19)
(7.78186e-05 -2.10199e-05 -3.0001e-19)
(0.000826328 0.000319854 -2.08067e-20)
(5.76259e-05 -2.14461e-05 -5.99558e-19)
(0.00022622 0.000176132 8.63942e-20)
(0.000229336 0.000309463 -3.45036e-19)
(0.000883893 0.000247062 0)
(0.000813557 5.059e-05 0)
(0.000262785 0.000137572 1.76861e-19)
(0.000234048 2.94466e-06 2.97856e-24)
(0.000184409 0.000206553 0)
(0.000293036 0.000653836 -5.55737e-21)
(0.000346124 -3.13231e-06 0)
(0.000369192 0.000600345 0)
(0.000108993 8.27597e-05 -1.34682e-21)
(0.000809816 2.6771e-05 -9.39637e-19)
(0.000808319 1.958e-05 7.96907e-19)
(0.000128924 5.80097e-05 -1.49869e-19)
(0.000956566 0.000150743 8.50636e-20)
(0.000835805 4.35044e-05 3.33008e-19)
(0.00081563 2.61255e-05 -2.9467e-19)
(0.00101709 0.00041276 0)
(0.000437331 0.000120309 6.24492e-19)
(0.000896841 0.000319979 2.09158e-20)
(0.000575151 0.000156923 0)
(0.00027168 0.000446996 4.09668e-19)
(0.00026133 0.000217732 -8.44239e-20)
(0.00109475 0.000377418 -7.82198e-19)
(0.000621542 0.000105451 -1.79309e-19)
(0.000807748 7.29743e-05 -7.45097e-21)
(0.000839255 2.93925e-05 9.3952e-20)
(7.94728e-05 -8.76301e-05 -1.98156e-18)
(0.000737454 0.000381911 2.19252e-19)
(0.000666151 6.29154e-05 2.30647e-20)
(0.000705357 0.000279211 1.59848e-23)
(0.00072821 0.000459332 -4.09702e-19)
(0.000844521 3.0877e-05 9.06477e-20)
(7.20972e-05 8.03484e-05 0)
(0.000654732 0.000419054 -4.65929e-20)
(0.000183711 9.62023e-05 0)
(0.000374279 0.000501802 -2.64854e-19)
(0.000309701 0.000168563 0)
(0.000673379 0.000204038 3.55261e-19)
(0.000647915 0.000260308 -4.37292e-20)
(8.1536e-05 0.000104366 6.19211e-19)
(0.000875124 9.24087e-05 -1.62048e-18)
(5.80581e-05 2.22474e-05 2.57215e-19)
(0.00088447 6.68616e-05 -1.6847e-18)
(0.000838617 8.77839e-05 1.63034e-19)
(0.000808803 3.18328e-05 1.89377e-18)
(0.000813632 3.2301e-05 -1.3284e-19)
(0.000734524 7.28085e-05 0)
(0.000806115 2.65904e-05 8.95704e-19)
(0.00095672 0.000229888 -4.27145e-19)
(0.000770518 9.23149e-05 -4.83752e-19)
(0.000777534 0.000230671 -8.8131e-20)
(0.000215417 -0.000160258 -2.0797e-18)
(0.000744078 8.09076e-05 8.87564e-19)
(0.000639806 0.000596304 0)
(9.32032e-05 -0.000115294 0)
(0.00121784 0.000471566 4.97258e-19)
(0.000637547 -6.20917e-05 -3.25514e-18)
(0.00134061 0.000419855 5.76387e-19)
(0.0012379 0.00071802 -6.38634e-20)
(0.000809959 3.0484e-05 -2.10946e-19)
(0.000833699 6.73965e-05 -1.42485e-18)
(0.00081436 2.47603e-05 1.57328e-18)
(0.000816624 2.84458e-05 9.78334e-20)
(0.000668802 0.000351629 -4.40439e-20)
(0.000101906 0.000124192 5.47567e-24)
(0.000748033 -4.20104e-05 2.65112e-19)
(0.000219175 -0.000256968 -7.32927e-19)
(0.000620954 0.000186859 0)
(0.000706071 4.32818e-05 9.90503e-20)
(0.000689845 1.01327e-05 -3.8085e-19)
(0.000388003 0.000171691 3.93393e-20)
(0.000804748 0.000504824 -1.65487e-19)
(0.000149233 7.63625e-05 3.06389e-25)
(0.000810328 0.000410369 0)
(0.000977565 0.000319078 4.15811e-20)
(0.000753394 -7.7507e-05 -6.16318e-19)
(0.000347061 0.00010658 4.9784e-19)
(0.000903283 0.000424797 0)
(4.96111e-05 3.15898e-05 1.33723e-19)
(0.000481853 0.00026836 2.13966e-19)
(0.000500999 -0.000146047 -7.0959e-19)
(0.000136721 -0.000158399 -1.05744e-18)
(0.000823001 3.08127e-05 -4.86898e-19)
(0.000778757 -9.10696e-05 -1.9429e-19)
(0.000549765 0.000728587 -1.17445e-18)
(0.000845078 4.66455e-05 -6.74213e-20)
(0.000640388 -2.42563e-05 1.27245e-18)
(0.000699549 9.94837e-05 2.27803e-20)
(0.000529354 0.000210526 -1.65696e-19)
(3.21378e-05 -2.20541e-05 -8.75912e-20)
(0.000170036 -4.22704e-05 2.40629e-18)
(1.91869e-05 7.55564e-07 -1.94853e-19)
(0.000824219 0.00011121 3.6378e-19)
(0.000659829 0.000136697 0)
(0.000188036 -8.28598e-05 -1.0482e-18)
(0.000122197 -1.68818e-05 3.12938e-19)
(0.000110619 -3.5535e-05 1.1763e-23)
(0.000795829 0.000107053 -3.19291e-19)
(0.000153764 -1.16148e-05 0)
(0.000582905 0.000242282 0)
(0.000111225 0.000330787 -3.62875e-19)
(0.00085824 0.000100252 2.095e-18)
(1.56423e-05 1.16675e-06 0)
(0.000876371 5.26095e-05 0)
(4.44938e-05 -2.60929e-05 0)
(0.000815351 4.44072e-05 -4.4672e-21)
(0.000790945 -4.74096e-05 0)
(0.00425984 0.00740629 8.06769e-20)
(0.00436132 0.00748591 1.43284e-19)
(0.000843916 -4.26485e-06 0)
(0.000783572 -4.95104e-05 8.1003e-19)
(0.000152821 0.000125849 1.49219e-19)
(0.000850859 6.92638e-05 8.07669e-19)
(0.000130294 0.000102601 2.34413e-20)
(0.000777059 -2.9729e-05 6.24529e-19)
(3.53425e-05 9.89009e-06 0)
(2.91513e-05 -1.39152e-05 -4.48518e-20)
(0.000893909 4.95075e-05 -4.8661e-19)
(3.44102e-05 -3.25183e-05 -6.69859e-19)
(0.000753928 0.0001208 -4.23279e-20)
(0.000168261 0.000163619 -1.88112e-19)
(0.00081419 2.63945e-05 0)
(0.00468258 0.00815358 9.00201e-22)
(0.000177622 0.000786996 3.33539e-19)
(0.000119109 -5.72976e-05 -9.14602e-19)
(6.23101e-05 -3.51546e-05 -1.16885e-18)
(0.000654351 1.43896e-05 1.8987e-20)
(0.000580003 0.000409107 0)
(0.000416888 0.000441949 -2.56348e-19)
(8.66979e-05 -5.92983e-05 1.18377e-18)
(0.000612224 7.36177e-07 7.70314e-20)
(4.26514e-05 1.97788e-06 4.07129e-19)
(0.000694781 -5.39274e-05 1.17175e-18)
(0.000810032 3.21403e-05 -5.95987e-19)
(6.75776e-05 -5.52897e-05 1.70939e-18)
(0.00084245 -2.08896e-05 -5.51821e-24)
(0.000630858 7.04812e-06 -3.76537e-20)
(0.000865191 6.83051e-05 0)
(0.000836503 3.75775e-05 0)
(0.00591698 0.00723867 2.5952e-19)
(2.00402e-05 -2.00946e-06 -1.19588e-19)
(0.000131276 -9.8993e-05 7.73027e-19)
(0.000721716 0.000119148 -6.96506e-19)
(2.32037e-05 -1.21258e-07 2.0152e-19)
(0.000614752 -3.4272e-05 -7.23888e-19)
(0.000740185 3.70921e-05 1.55821e-18)
(0.00070172 0.000159343 -3.55468e-19)
(0.000807656 -1.29438e-05 3.60489e-19)
(7.83988e-05 -3.34133e-05 1.11611e-18)
(0.000799087 7.3352e-06 -3.22724e-19)
(0.000864599 4.26753e-05 0)
(0.000538985 0.000303327 4.21048e-20)
(0.000854018 5.04436e-05 -9.46042e-19)
(2.05447e-05 2.19243e-06 9.11279e-19)
(0.000850469 4.67071e-05 9.65572e-19)
(0.000854879 5.16108e-06 -9.60233e-19)
(0.000744857 -1.6027e-06 -5.69238e-19)
(0.000515483 -6.93945e-05 -5.25697e-19)
(0.00432859 0.00745239 2.46923e-19)
(0.00422355 0.00752956 -2.53805e-19)
(0.0042215 0.0075878 2.66649e-19)
(0.00425578 0.00741055 1.97903e-19)
(0.000845134 -2.43303e-05 1.43968e-19)
(0.00447496 0.00751141 0)
(0.0044027 0.00751638 -3.86705e-19)
(3.14996e-05 -1.40448e-07 -9.98133e-19)
(0.00417052 0.00746939 -6.33452e-20)
(0.00414584 0.00743237 -2.21443e-19)
(0.00603002 0.0106068 0)
(0.00654049 0.0111876 3.71241e-20)
(0.00600998 0.0105765 0)
(0.00655618 0.0112112 1.30817e-19)
(0.00599737 0.0106006 2.69629e-19)
(0.00659283 0.011228 1.24528e-20)
(0.00593598 0.0106134 -7.76578e-19)
(0.00662306 0.0111469 8.14288e-21)
(0.00390372 0.00920086 -1.90847e-19)
(0.00418686 0.00748856 3.89866e-21)
(0.00423815 0.00755301 7.93324e-20)
(0.00415029 0.00743463 4.11903e-20)
(0.000873889 0.000190413 4.46785e-20)
(1.11347e-05 1.59138e-06 0)
(0.000696071 -0.000126204 0)
(0.00066926 4.85878e-05 0)
(0.00244427 0.00110851 4.24578e-21)
(0.00075301 -3.15935e-05 1.72602e-19)
(4.11448e-05 5.98528e-06 4.54095e-20)
(1.14905e-05 -2.82669e-05 1.6534e-18)
(0.000848288 1.5997e-05 0)
(2.83713e-05 1.29809e-05 -1.91744e-19)
(0.000140661 0.000224475 0)
(1.95496e-05 -1.06979e-06 0)
(1.59518e-05 -1.44657e-06 0)
(0.000819116 0.000136643 1.13703e-20)
(0.00081001 -1.62102e-05 1.79297e-19)
(3.59372e-05 0.000278302 -1.82927e-23)
(0.000158249 0.000273905 -1.84206e-18)
(0.000600504 0.00033041 -8.57067e-20)
(0.000895837 0.00011139 6.002e-19)
(0.000669156 -0.000237399 6.72887e-19)
(0.000363402 0.00110875 0)
(0.000467994 0.000574542 2.71543e-18)
(9.10189e-05 0.000147347 -1.80319e-18)
(2.41405e-05 1.29446e-07 0)
(0.000820273 -5.50547e-05 3.63144e-20)
(1.69472e-05 3.71704e-05 1.64464e-18)
(0.00089989 3.09875e-05 2.71234e-19)
(-8.94418e-06 -1.4562e-05 3.8033e-18)
(0.000929996 3.95318e-05 -2.69081e-19)
(0.00135851 0.000151934 7.47327e-19)
(3.66074e-05 -1.09733e-05 8.25789e-20)
(3.7938e-05 4.23146e-06 -8.59135e-19)
(5.05284e-05 0.0001444 0)
(0.000906427 7.82519e-05 5.98604e-19)
(0.000492467 0.000368358 2.37162e-19)
(0.000678469 1.79518e-05 -3.89181e-20)
(0.000774744 -5.77976e-06 2.57143e-19)
(0.000736143 -0.000189697 0)
(0.00632157 0.0108969 -1.68014e-19)
(0.00637929 0.0109744 4.05724e-19)
(0.00616074 0.0107318 -6.18282e-19)
(0.00650154 0.011133 -8.09613e-20)
(3.52798e-05 0.000120225 8.00607e-19)
(0.000915855 5.93533e-05 1.46622e-22)
(0.0064118 0.0110068 -3.86358e-19)
(0.00628256 0.0108466 5.48318e-19)
(0.00608088 0.0106736 -4.16722e-19)
(0.00652202 0.0111654 -6.81235e-20)
(8.10435e-05 0.000512113 -2.01833e-20)
(9.36731e-05 -0.000203732 -7.93829e-19)
(0.000684046 -2.03759e-05 -7.63042e-19)
(0.00072192 0.000220642 0)
(0.000799745 7.60427e-07 0)
(0.000185318 0.000391608 3.36323e-19)
(0.00059659 0.000518551 -5.41873e-19)
(1.11409e-05 -1.8597e-06 1.78415e-19)
(0.000202241 0.000466701 -7.38448e-19)
(0.00100525 0.000969814 -1.12689e-19)
(0.000740185 0.000166388 0)
(0.00078563 0.0001822 1.31036e-19)
(0.00635464 0.00587721 1.1313e-18)
(0.000740556 0.00112671 8.26593e-20)
(3.9691e-05 3.91316e-05 -7.44769e-20)
(0.000811975 1.72609e-05 0)
(0.000875325 2.62959e-05 -3.56955e-20)
(3.61499e-05 3.65219e-06 -1.96722e-19)
(3.12241e-05 5.08055e-06 1.9301e-19)
(0.000831805 2.07676e-05 5.37295e-19)
(0.000969052 0.000107826 6.5858e-19)
(0.000580878 3.74833e-05 0)
(0.000221956 -0.000305252 -3.98053e-19)
(0.000912755 0.000149123 3.89651e-19)
(1.64127e-05 -6.50782e-05 2.0314e-19)
(0.00144647 0.000440711 -2.58082e-18)
(0.000611093 -6.12271e-06 0)
(0.000788682 0.000144576 3.75517e-19)
(9.38091e-05 0.000397791 0)
(0.00118702 0.00816343 4.62167e-19)
(0.000486374 0.000500895 -1.22465e-18)
(0.000542628 0.00100274 -1.83768e-19)
(0.000878314 1.9369e-05 -1.46066e-19)
(1.39829e-05 2.63091e-05 0)
(0.000940492 7.6861e-05 6.11792e-19)
(0.00410634 0.00739532 8.14028e-20)
(0.00417142 0.00747392 4.72894e-20)
(0.00449858 0.0075141 4.5396e-19)
(0.00444404 0.00754049 -3.28998e-19)
(0.00647548 0.01111 8.1039e-20)
(0.00391496 0.00714599 -9.72077e-22)
(0.00550691 0.00779552 -5.64645e-19)
(0.00409798 0.0073716 5.21752e-21)
(0.00518739 0.00785559 5.11567e-19)
(0.00407977 0.00734002 -4.86956e-20)
(0.0049524 0.00771494 0)
(0.00408505 0.00736436 -8.56233e-20)
(0.00474109 0.00758643 4.92408e-19)
(0.00409828 0.00737598 8.74859e-20)
(0.00457369 0.00752601 0)
(0.00428337 0.00742044 1.39715e-19)
(0.00423968 0.00759935 5.80008e-19)
(0.00446642 0.00752582 -5.54769e-19)
(0.00438698 0.00750401 3.71302e-19)
(0.00422815 0.00752544 2.88122e-19)
(0.00643093 0.0110435 -4.97496e-21)
(0.00411776 0.00740146 3.1151e-20)
(0.00645898 0.0110733 0)
(2.52338e-05 6.37192e-06 -1.89881e-19)
(0.00199945 0.00654317 2.28313e-19)
(0.000840334 -4.24847e-05 1.09627e-19)
(0.000857307 1.10458e-05 0)
(1.91257e-06 1.70158e-06 -3.99157e-19)
(4.76583e-06 -0.00014767 6.91951e-19)
(2.46025e-05 5.83056e-05 2.08921e-18)
(0.000824115 0.000179289 -9.00855e-20)
(0.000799224 9.88203e-06 7.06491e-19)
(1.8573e-06 -1.63915e-06 3.10026e-19)
(2.03611e-05 -3.58221e-05 -1.84589e-18)
(0.000761162 2.77593e-05 1.63174e-19)
(0.000865467 0.000124485 -3.08031e-20)
(0.00079992 -9.3832e-06 1.48158e-19)
(0.000408886 0.000678648 0)
(5.67601e-05 -0.000149283 1.15149e-18)
(0.000860137 1.02604e-05 1.52533e-19)
(2.06104e-05 2.47557e-05 0)
(0.000113198 0.000562606 -6.31277e-19)
(0.000606038 0.000596873 1.31805e-18)
(0.000326759 0.00074725 0)
(0.000800408 -1.74359e-05 0)
(0.000800028 3.29088e-06 1.17139e-18)
(1.85468e-05 5.04448e-05 -3.51532e-18)
(1.75672e-05 7.79195e-06 3.73665e-19)
(0.000115922 0.000147467 0)
(4.83498e-05 -4.17642e-05 0)
(6.30982e-05 0.000114396 2.01021e-19)
(0.000932469 0.000185556 3.50478e-19)
(0.00079981 1.61437e-05 -1.39527e-18)
(2.35479e-05 3.43464e-05 0)
(0.000475715 1.37034e-05 -6.03829e-20)
(0.000801287 3.96666e-05 -1.56364e-19)
(0.000838223 3.30263e-05 1.06328e-18)
(0.000258265 0.000542793 6.32283e-19)
(0.000870147 0.000155776 0)
(2.08927e-05 -2.51301e-05 5.38743e-19)
(2.92971e-06 -7.09421e-06 -3.20004e-19)
(0.000992165 3.02337e-05 0)
(0.00103262 0.00226064 0)
(0.000951575 -8.85337e-06 0)
(0.000998879 0.000205729 4.27237e-19)
(0.000816241 -3.19847e-05 -2.8373e-19)
(0.00092557 0.000110188 -6.84867e-19)
(0.000799994 3.31635e-06 0)
(4.25009e-05 7.06499e-05 -1.71585e-19)
(0.000174097 0.000328192 1.08123e-18)
(0.000797977 1.79425e-05 -1.45891e-23)
(0.00108533 0.00020816 -6.69085e-19)
(0.00109041 0.000124009 0)
(2.76215e-06 7.20427e-06 2.51059e-19)
(1.98504e-05 -1.6353e-05 -1.94336e-19)
(0.000586286 3.7617e-05 6.95102e-21)
(1.60661e-05 -8.58075e-05 0)
(0.00105527 0.00025299 9.50151e-19)
(0.00502889 0.0097496 -2.82996e-19)
(0.00312101 0.0096199 1.27222e-18)
(4.93157e-05 -0.000109184 -1.91362e-19)
(6.05695e-05 -7.67854e-05 1.85976e-18)
(0.00119219 0.000241966 1.673e-19)
(0.00132825 0.00108082 2.34108e-19)
(0.000812725 1.52368e-07 -7.3235e-19)
(0.000200656 0.000952353 -2.38363e-19)
(0.000810715 0.000927182 -2.18603e-19)
(0.000799767 -3.18703e-06 0)
(8.63587e-05 0.000632177 0)
(9.59638e-05 0.000283758 -4.08727e-23)
(0.000720698 -3.99432e-05 -1.68128e-23)
(0.000820913 6.19031e-05 1.50666e-19)
(0.00263038 0.00206394 -1.23141e-18)
(0.00175921 0.00924018 -1.17177e-19)
(0.000833766 4.80942e-05 4.92265e-19)
(0.00632817 0.00404504 -1.75902e-19)
(0.00672102 0.0115578 -1.364e-20)
(0.00473426 0.00784385 4.9265e-21)
(0.000801321 1.40167e-05 -2.19045e-18)
(0.000834559 1.19989e-05 3.88001e-24)
(9.99288e-06 -8.35623e-06 -3.48061e-19)
(4.68535e-05 9.18331e-05 -3.49319e-19)
(6.84589e-05 0.000273196 8.7538e-19)
(1.18321e-05 1.69831e-05 4.90466e-19)
(8.97021e-05 0.000232711 3.69803e-19)
(0.000822465 2.64715e-05 0)
(0.00534809 0.00949241 1.95078e-20)
(0.00153133 0.000631385 -2.61114e-20)
(0.000819959 3.29232e-05 3.59944e-19)
(3.97153e-05 -8.50907e-05 0)
(0.00184797 0.000739235 5.46079e-19)
(1.02316e-05 8.19122e-06 -2.70187e-19)
(3.49367e-05 2.95459e-05 9.71942e-20)
(0.0013238 0.00139384 6.36603e-19)
(0.000736065 4.67102e-05 1.83128e-19)
(6.13876e-06 -1.94675e-06 -1.70225e-19)
(0.00206394 0.00155545 -1.05604e-18)
(0.000126542 0.000181132 -8.18832e-19)
(0.00392149 0.00848778 -1.09098e-18)
(6.35035e-06 1.80525e-06 8.81535e-20)
(0.000145331 -0.000143528 -1.25558e-18)
(5.2239e-05 -5.84392e-05 4.057e-20)
(0.00152779 0.000977316 0)
(0.00103734 0.000139015 -4.07632e-22)
(0.000454459 0.000849929 -4.02128e-20)
(0.000802596 2.68124e-05 -2.33953e-19)
(8.71553e-05 0.000187338 7.36143e-19)
(3.55031e-05 -6.39382e-05 4.04069e-19)
(1.91282e-05 1.59797e-05 -9.4722e-20)
(3.27343e-05 9.49281e-05 -3.20327e-19)
(0.00020345 -0.000277827 -5.44958e-19)
(0.00325191 0.00345666 2.81739e-21)
)
;

boundaryField
{
    back
    {
        type            empty;
    }
    ingreso
    {
        type            fixedValue;
        value           uniform (0.0008 0 0);
    }
    salida
    {
        type            zeroGradient;
    }
    front
    {
        type            empty;
    }
    defaultFaces
    {
        type            noSlip;
    }
}


// ************************************************************************* //
