/*--------------------------------*- C++ -*----------------------------------*\
  =========                 |
  \\      /  F ield         | OpenFOAM: The Open Source CFD Toolbox
   \\    /   O peration     | Website:  https://openfoam.org
    \\  /    A nd           | Version:  7
     \\/     M anipulation  |
\*---------------------------------------------------------------------------*/
FoamFile
{
    version     2.0;
    format      ascii;
    class       surfaceScalarField;
    location    "85.5";
    object      phi;
}
// * * * * * * * * * * * * * * * * * * * * * * * * * * * * * * * * * * * * * //

dimensions      [0 3 -1 0 0 0 0];

internalField   nonuniform List<scalar> 
1111
(
6.84698e-09
1.30381e-08
-1.6009e-08
-3.87605e-09
6.82392e-09
-1.18168e-08
1.18399e-08
-1.47521e-08
5.5879e-09
8.96496e-09
1.99236e-10
7.86759e-10
-9.04432e-10
-1.43447e-08
1.44623e-08
-1.42948e-08
1.40595e-08
1.02197e-09
-1.63902e-09
1.49112e-08
2.15642e-09
-3.1242e-09
9.58318e-09
-9.86261e-09
3.40363e-09
-6.71627e-09
-1.26155e-08
1.26005e-08
6.73133e-09
-5.03304e-08
-2.60281e-08
7.63584e-08
-8.13232e-09
7.68664e-09
7.26961e-09
3.37529e-09
3.60457e-10
-3.45706e-09
-2.7868e-10
1.5837e-08
-1.61998e-08
-2.31852e-08
2.3548e-08
-9.66118e-09
-7.89414e-09
8.8002e-09
8.75512e-09
-3.55397e-08
1.76878e-08
-3.23059e-08
5.01578e-08
9.50599e-09
-1.96348e-09
-1.42588e-08
-7.76482e-10
1.70089e-09
-3.19456e-09
2.27015e-09
-3.90238e-09
1.33448e-08
1.96357e-09
-1.1406e-08
8.8188e-09
-2.61669e-09
-1.50466e-08
8.84444e-09
3.73727e-08
-3.00513e-08
-7.32138e-09
-1.94534e-08
3.81998e-10
1.72416e-08
1.82983e-09
-1.02065e-09
4.21878e-09
-1.78576e-08
1.46595e-08
-6.1222e-08
-3.96254e-09
6.51846e-08
1.42283e-10
-1.18658e-09
-3.37928e-10
1.38223e-09
-1.68856e-09
-1.36268e-08
-1.0466e-10
-2.57462e-10
2.03174e-10
1.58947e-10
-1.03297e-08
-8.4526e-09
1.2965e-08
5.81727e-09
6.85989e-10
-2.12453e-09
-8.32004e-09
9.75858e-09
8.47694e-09
8.13046e-10
-9.50217e-09
2.12188e-10
-2.8761e-09
-7.96162e-09
1.10361e-08
-1.98404e-10
1.14035e-08
-9.28482e-10
-1.65621e-09
-8.54828e-10
8.52979e-10
1.06739e-11
-8.82494e-12
-1.30176e-10
7.27593e-10
2.65029e-10
-8.62445e-10
-4.6907e-10
-3.92283e-11
5.02007e-10
6.29179e-12
-3.11322e-11
-8.33342e-10
1.10808e-10
7.53666e-10
-9.33352e-11
-7.92625e-10
9.30916e-10
-1.84344e-08
-1.94992e-09
-3.86988e-10
4.26149e-11
-1.24697e-10
1.33892e-08
-1.32411e-08
4.07065e-09
-3.68104e-10
5.66989e-10
3.39495e-10
-5.38381e-10
-9.26558e-11
-1.61434e-09
1.31655e-09
3.90444e-10
-2.03415e-09
1.04794e-08
-1.15695e-08
-2.77909e-10
-1.59367e-10
5.0288e-11
-8.76227e-09
1.04024e-08
-9.77245e-09
1.22215e-08
-1.71476e-08
4.65121e-09
2.74852e-10
5.92911e-11
-1.59329e-10
-1.77872e-10
1.80618e-10
7.87575e-10
-1.15213e-10
-5.95315e-08
7.42291e-08
-1.46976e-08
1.03992e-09
-2.54158e-10
-1.16853e-09
3.82769e-10
1.1487e-09
1.0313e-08
-1.37175e-08
2.25578e-09
-1.65945e-09
7.62737e-09
-8.91518e-09
2.94726e-09
-6.67854e-09
5.6538e-09
5.64069e-09
-4.61595e-09
-7.57297e-09
-1.77348e-09
1.78825e-09
7.55819e-09
-1.83194e-10
-9.09179e-08
9.13041e-08
-2.03022e-10
-2.57685e-10
-8.9754e-08
9.01643e-08
-1.52558e-10
8.30798e-08
-1.49363e-09
1.09983e-10
-8.16961e-08
-2.92581e-09
-4.22793e-10
6.66328e-10
8.39904e-10
-4.66313e-10
3.9372e-09
-1.18915e-09
3.43481e-09
-6.18287e-09
-9.67719e-10
8.94178e-10
-1.49466e-08
6.59498e-09
9.71502e-09
1.04151e-09
-1.04842e-08
-2.7229e-10
-6.13637e-09
1.3382e-08
1.09259e-09
-8.33822e-09
1.43643e-08
-4.47553e-09
3.68639e-09
-1.35751e-08
1.54035e-08
1.68515e-09
-1.65982e-09
-1.89904e-10
-2.00634e-08
-7.42675e-09
2.768e-08
1.42884e-08
-8.68638e-09
-1.94755e-09
7.93448e-09
-1.21233e-08
-7.71463e-12
8.08143e-11
-1.24163e-09
-3.62344e-08
-2.32971e-08
8.27454e-09
2.47492e-10
3.69951e-09
-7.01534e-09
1.10559e-08
6.36186e-09
-5.98022e-10
3.21216e-10
4.82096e-10
-2.0529e-10
5.77629e-09
-4.76167e-09
3.64637e-09
-4.66099e-09
-4.63705e-10
-6.31656e-10
2.62019e-10
6.62613e-10
-5.91033e-10
-1.65549e-11
-8.45754e-10
7.32133e-10
-1.80641e-08
2.43446e-09
1.55051e-09
1.40791e-08
2.25435e-10
-6.98074e-10
-1.25383e-10
-4.10472e-09
-1.50877e-08
1.12839e-09
5.61357e-09
1.20392e-08
-5.22552e-09
-1.24272e-08
1.64323e-08
6.84525e-10
-1.58964e-08
-1.22044e-09
-6.79747e-10
4.563e-10
5.44662e-10
-4.2131e-10
2.12164e-10
2.09147e-10
-7.37987e-09
-3.58788e-09
4.28921e-09
-2.31839e-10
3.5573e-10
-1.23891e-10
1.17959e-09
-1.5614e-08
-8.23661e-10
9.74331e-09
-1.09538e-08
-9.64759e-10
-4.37865e-10
1.28878e-08
4.40816e-09
-4.15544e-09
-1.31405e-08
1.07504e-10
7.13159e-09
-7.89396e-09
6.41618e-09
-1.6922e-09
-8.90411e-09
8.14094e-09
2.45536e-09
-1.87386e-09
6.62332e-10
-1.38762e-08
-1.29021e-10
-1.02818e-10
1.42938e-10
7.90671e-10
-8.50658e-09
7.46612e-10
1.72948e-08
-1.60906e-09
-1.23553e-08
1.37071e-08
-1.35187e-09
1.21987e-08
1.39654e-08
-1.55146e-08
-1.06495e-08
-5.532e-10
1.00956e-09
-4.56362e-10
4.42909e-10
-4.00499e-10
-4.241e-11
4.93154e-10
-2.84012e-10
-2.09143e-10
1.4174e-09
-1.15184e-09
-2.65552e-10
-1.06512e-08
8.02604e-10
9.84856e-09
2.06106e-09
-6.43665e-10
8.95915e-09
-1.53822e-08
7.46802e-09
-8.98453e-09
5.62789e-11
3.71734e-09
-3.98332e-10
-2.42152e-09
2.4778e-09
-6.61492e-09
7.94688e-09
-1.33196e-09
-5.82288e-10
4.23638e-09
2.83113e-10
1.72723e-08
-1.44842e-08
-1.63943e-09
-5.97057e-09
5.37319e-09
-5.91761e-10
-1.9747e-10
5.92893e-09
-5.92732e-09
-1.61379e-12
6.91311e-09
4.50386e-09
5.04392e-12
-1.60077e-08
1.04617e-08
1.77447e-08
5.76176e-09
8.28294e-09
8.20725e-09
-6.84792e-09
1.32302e-09
-1.19742e-08
4.88328e-10
1.16848e-09
-1.29577e-08
2.90342e-09
-4.25628e-10
1.16086e-08
-1.09241e-08
-2.41303e-10
-8.16791e-10
-1.38015e-08
7.57541e-09
7.54429e-10
-9.58767e-12
-8.90232e-09
5.05357e-09
-3.02412e-08
-1.25074e-08
-2.77499e-09
1.48096e-09
1.40763e-08
1.10009e-08
-1.07613e-08
-1.43159e-08
1.54437e-08
-3.1209e-09
-1.23228e-08
1.62396e-09
3.96042e-09
-1.1079e-09
-9.07991e-10
-8.77153e-10
1.17658e-09
6.0856e-10
-2.39083e-10
3.60236e-10
3.60943e-10
6.21381e-08
-6.21636e-08
2.54622e-11
6.2059e-08
-6.23628e-08
3.03752e-10
8.37014e-10
6.47364e-08
-6.55629e-08
8.26552e-10
6.41289e-08
6.07445e-10
-2.24665e-10
-6.65082e-08
9.45234e-10
-6.20511e-08
6.19167e-08
1.34356e-10
1.31553e-09
-6.78237e-08
-6.22107e-08
1.59623e-10
1.25234e-08
-7.58686e-10
1.37034e-09
-3.70085e-09
3.08919e-09
3.33263e-10
-1.19553e-09
9.53869e-10
-6.08011e-10
1.40066e-09
-1.64158e-09
8.48935e-10
1.42077e-09
-1.53182e-09
1.91863e-10
-5.88575e-11
-3.41716e-09
2.80606e-09
-2.03841e-09
2.6495e-09
-5.12507e-10
-2.75992e-09
2.51374e-09
-3.60304e-09
-5.77459e-09
5.92767e-10
-6.30016e-10
1.23509e-09
1.11944e-09
-6.50326e-09
7.94008e-09
3.06705e-09
1.98023e-08
-4.35857e-09
-7.1862e-10
2.88024e-10
1.02336e-09
-1.00897e-08
-2.61446e-08
5.33983e-09
-4.30564e-09
-3.16249e-09
2.12829e-09
1.07356e-10
2.27981e-11
3.71853e-10
-2.59946e-09
3.36052e-09
8.91153e-09
7.60381e-10
-2.83454e-10
2.1144e-09
-2.34345e-09
1.91361e-09
1.4742e-08
1.32997e-08
-2.69475e-08
3.26947e-08
6.34232e-09
-2.2828e-08
-1.04618e-08
1.84586e-08
-1.7951e-08
1.04933e-08
-1.01256e-10
-1.74209e-10
-1.25636e-09
-1.73317e-09
-2.94383e-09
3.61183e-09
1.5053e-08
-6.05906e-10
-1.37848e-08
-5.64438e-10
-2.41542e-09
2.19933e-10
1.54686e-08
1.7732e-08
1.37043e-08
7.17729e-10
-1.66753e-09
-1.27545e-08
-1.58419e-09
5.9894e-09
1.25119e-08
-5.31731e-10
-1.07769e-09
-3.60972e-09
2.77259e-09
3.6432e-09
2.48294e-09
1.44298e-08
4.23408e-09
-1.42557e-08
1.79486e-08
-1.7672e-09
2.54026e-09
-3.42828e-09
1.89523e-09
-4.88234e-09
1.29495e-08
-1.19695e-08
-1.40297e-08
3.55056e-10
8.79229e-09
-1.82102e-09
1.52189e-09
1.53422e-09
-8.65878e-09
7.05607e-10
-4.55426e-09
-6.01861e-09
1.2204e-08
-1.48442e-08
1.14231e-09
1.6688e-09
-2.21113e-09
1.67452e-08
-1.62029e-08
-1.06062e-09
1.41591e-08
3.03852e-09
-4.39292e-09
-1.40278e-08
7.52032e-09
-1.73315e-08
-8.13986e-09
6.76421e-09
5.86632e-09
1.45529e-08
-9.94538e-09
3.04546e-09
9.35529e-09
9.86296e-09
3.83888e-09
-4.18028e-09
2.16952e-08
-1.91348e-08
4.95995e-09
-1.04961e-08
2.17471e-09
5.63649e-09
1.38626e-08
-2.63461e-10
1.27789e-08
-1.35761e-08
-1.89466e-09
1.90347e-09
-9.13415e-10
9.04604e-10
1.10109e-08
-6.37813e-09
7.40636e-09
-1.08935e-08
1.43888e-09
-4.74702e-09
1.14488e-08
-1.19273e-08
-7.56064e-09
9.1762e-09
9.39539e-09
1.28827e-08
6.80883e-10
-1.38271e-08
1.50121e-09
7.94809e-10
-1.1092e-08
-6.72206e-09
1.02534e-08
-1.46589e-09
2.51667e-09
-8.96852e-09
4.80178e-09
-5.24305e-09
1.15379e-08
-3.48746e-09
-1.17436e-08
3.6931e-09
-4.48305e-09
1.1274e-08
1.89134e-09
1.13177e-09
-5.0324e-09
-1.77466e-08
1.04606e-08
1.23184e-08
7.61128e-10
-1.09787e-08
-9.97647e-09
1.59227e-08
1.25486e-08
2.85254e-09
-9.76461e-09
-1.33116e-08
-3.16675e-10
-1.27504e-08
1.65435e-10
-7.63263e-10
1.1634e-08
1.25278e-08
-8.23341e-09
1.66021e-08
-1.59839e-08
3.61588e-09
-4.65981e-10
1.75771e-09
1.27873e-08
-3.91352e-09
-1.26691e-08
-5.09006e-09
1.64587e-09
4.61266e-09
1.22228e-08
-7.25564e-09
9.17253e-10
-1.5941e-09
8.13269e-10
-1.11382e-09
5.86313e-09
2.63254e-08
-1.60639e-10
-1.00533e-08
1.0214e-08
2.85294e-08
-2.22842e-08
2.20731e-08
1.97208e-08
-1.27119e-08
-2.67656e-09
1.50684e-08
1.97746e-10
-1.21435e-08
-4.09099e-10
-6.02135e-09
-1.87557e-09
2.23305e-09
1.53385e-09
-3.51231e-10
-1.10655e-08
1.14536e-08
-3.69354e-11
3.10868e-09
-5.25148e-09
-1.10225e-08
1.05804e-08
-8.9936e-10
-1.07574e-08
-1.78883e-10
-1.12047e-08
-2.59825e-09
-1.20154e-08
2.19016e-09
7.90286e-09
5.13695e-09
-3.08547e-10
-1.17914e-08
1.17487e-08
5.87413e-10
-8.78184e-09
5.17708e-09
-1.44892e-09
2.33151e-09
-2.27974e-09
-1.30477e-08
-1.27068e-08
1.22377e-08
-1.02223e-08
-1.57881e-08
1.00028e-08
9.25504e-09
8.47325e-10
2.6536e-09
-1.27069e-08
1.13995e-08
1.6733e-09
3.93397e-09
3.03427e-10
-5.14922e-10
-2.52211e-10
-4.12626e-09
2.56681e-09
-8.55968e-10
2.00098e-10
-2.35211e-10
3.51122e-11
-2.66485e-09
1.3004e-08
2.20941e-09
2.55179e-09
-1.05362e-10
-1.46409e-09
-4.43293e-10
-2.36702e-09
-3.5343e-10
1.29555e-08
1.00314e-08
-3.45935e-10
6.85647e-09
-1.23145e-09
-5.27908e-09
-9.78351e-09
-5.11053e-09
1.53067e-10
4.70316e-11
4.87582e-09
1.31831e-09
-1.71728e-08
-3.78475e-10
-7.84912e-10
-2.76366e-09
1.01952e-09
2.9848e-09
6.19392e-08
-8.61922e-11
-6.1853e-08
6.23614e-08
1.8857e-10
-6.255e-08
-1.41414e-08
-1.82977e-10
1.45027e-08
-1.78318e-10
3.03331e-09
-1.84882e-09
2.56567e-09
1.79982e-09
-4.47971e-09
-3.45536e-10
-5.36603e-10
4.35335e-10
-1.04021e-10
4.5371e-10
-3.0965e-10
1.96213e-08
1.07728e-09
-1.58228e-08
-1.65804e-10
-1.93597e-09
1.2458e-08
2.26536e-09
1.78689e-09
5.33805e-09
-2.09354e-09
-7.72337e-08
-2.41775e-08
-4.89481e-09
1.58272e-08
2.41239e-09
-1.83569e-10
-3.03942e-09
-1.12679e-09
3.82789e-10
-3.33687e-10
-1.02537e-08
-3.50485e-10
1.06042e-08
-1.08255e-08
-6.60616e-09
1.07096e-08
-9.44555e-09
8.75997e-09
1.6507e-10
1.55483e-09
9.76557e-09
-9.66558e-09
-9.9988e-11
6.16832e-10
8.46919e-11
1.05981e-08
6.76643e-10
-8.32082e-10
-1.29635e-10
-1.42432e-08
-4.88175e-10
-1.37687e-08
1.26132e-08
-1.18394e-08
-6.60323e-08
6.49863e-08
1.04607e-09
2.69864e-10
-2.47066e-10
1.19602e-08
-2.45232e-10
1.00211e-11
-2.04428e-09
2.76837e-09
-3.4316e-09
-1.34785e-08
-1.62761e-09
2.57219e-09
-4.73669e-09
-1.4052e-08
1.61591e-09
5.57293e-09
9.63553e-09
-8.99337e-09
-2.70516e-10
2.52846e-11
-9.3285e-09
-1.32859e-08
1.50697e-10
-6.26985e-08
2.35573e-10
6.24629e-08
6.95192e-10
6.34337e-08
-2.24392e-10
-1.55138e-09
-1.44819e-08
1.07423e-10
-6.3397e-08
6.32895e-08
1.85285e-10
-6.29383e-08
6.2753e-08
3.71201e-10
6.18038e-08
1.50735e-10
-6.19546e-08
6.16347e-08
1.69157e-10
-8.78936e-08
8.8503e-08
-2.02073e-12
9.33969e-08
-9.31037e-08
-2.67741e-10
-8.66323e-08
-4.34714e-10
9.33557e-08
-1.83457e-10
-8.49181e-08
-7.6893e-10
9.34864e-08
1.73013e-10
-5.22827e-10
1.96095e-09
9.23625e-08
-6.93173e-08
6.21457e-08
-6.23289e-08
-6.29561e-08
6.14919e-08
1.42781e-10
-3.09046e-09
2.92944e-09
-1.40947e-08
5.29152e-11
1.00152e-10
1.47151e-09
8.77008e-09
-1.13868e-08
3.82923e-08
-3.4515e-08
-1.6735e-08
1.37895e-08
-4.51547e-11
-2.16054e-10
1.67739e-10
6.88396e-10
-1.32815e-10
3.29066e-10
4.49631e-09
1.03371e-09
-3.63479e-09
-1.98159e-10
2.40774e-10
-1.47871e-10
-2.55176e-09
1.31524e-08
2.40338e-09
-1.44385e-08
-2.61998e-09
-3.36983e-09
5.57943e-09
1.04516e-09
-2.66258e-09
1.42758e-08
-1.15263e-09
-2.13968e-09
2.49106e-09
-8.1326e-09
-1.9054e-08
-1.34439e-08
7.95155e-09
5.84739e-09
-2.36516e-10
-5.54522e-10
3.02409e-09
1.44715e-08
2.25497e-09
-1.81535e-09
-3.98649e-10
4.48434e-10
-2.47256e-10
1.59719e-08
-5.65103e-10
-1.57573e-08
-4.78451e-10
-5.82043e-10
3.19888e-10
-2.44368e-10
3.46823e-09
-1.64679e-08
4.81177e-10
-1.55059e-09
-2.14299e-09
-2.33646e-09
1.55966e-08
-9.05986e-08
-1.34023e-10
9.16838e-08
-1.9109e-10
-8.9169e-08
-4.77616e-10
9.31068e-08
-2.75599e-10
-9.29174e-08
-5.57066e-10
-1.63719e-09
1.67198e-08
9.19852e-08
-1.98691e-10
2.92008e-11
-2.21244e-10
9.91044e-09
2.52982e-09
-7.61804e-09
-1.21477e-08
-5.67838e-09
8.43277e-09
1.46519e-09
-6.83092e-09
-6.02571e-09
9.0235e-09
-8.85799e-11
1.01471e-08
1.949e-08
-1.79578e-08
3.0786e-09
-1.26691e-08
3.07856e-09
-6.99791e-08
3.94674e-09
-2.05605e-08
-1.30866e-08
-4.99311e-10
-5.95434e-09
-1.52822e-08
9.09298e-09
-1.51682e-08
4.46044e-10
3.77135e-10
-1.85438e-09
-1.65632e-08
1.70115e-08
7.4188e-09
-7.8416e-09
-4.8342e-09
1.52656e-08
-1.68385e-09
6.94033e-10
-1.02318e-09
1.82465e-10
1.19342e-08
3.32021e-09
7.09089e-08
-1.82314e-08
7.65545e-10
-1.49724e-08
-2.40838e-10
-2.81702e-10
-8.77631e-11
6.09538e-08
-6.12294e-08
-6.33678e-08
-6.3137e-08
-6.37644e-11
-2.62527e-10
-9.25911e-08
-6.04544e-08
6.24153e-08
6.50962e-08
-6.02814e-08
6.45734e-08
-6.04648e-08
6.38045e-08
-6.07326e-08
6.33698e-08
9.2314e-08
2.91351e-10
-6.37936e-09
7.51118e-08
-6.54122e-08
4.47815e-11
-4.47815e-11
4.46665e-10
-3.31568e-10
1.54863e-08
-3.36936e-11
3.36936e-11
3.50276e-10
1.53599e-09
1.38928e-08
1.33752e-08
-2.73812e-09
3.7283e-09
6.52156e-09
1.86267e-09
3.79342e-10
-2.59944e-10
-2.97939e-09
1.45762e-08
1.48469e-08
-4.28272e-09
1.18174e-08
1.91289e-10
1.52977e-10
2.77915e-09
-8.5357e-10
-1.56829e-09
-5.83974e-09
-2.0427e-10
-4.06294e-10
1.53042e-08
2.65804e-10
7.38105e-11
1.4638e-08
-2.6142e-08
1.77219e-08
2.63925e-09
1.29399e-09
2.49149e-09
-3.724e-09
1.92742e-08
-1.80417e-08
-8.42393e-11
2.50968e-10
-1.43995e-09
-7.92101e-08
-7.07573e-08
1.33969e-09
-5.803e-10
6.52822e-10
2.29679e-08
1.85952e-08
-6.34761e-09
7.81211e-11
-4.31204e-09
-2.50605e-09
2.9952e-08
1.51618e-10
1.48184e-08
7.35816e-08
5.48862e-11
5.20513e-10
-1.6242e-10
-2.221e-10
-3.67666e-09
2.42283e-08
-1.48664e-08
1.01036e-09
-1.41563e-08
-5.53702e-11
2.03739e-08
-2.86671e-08
9.31246e-10
2.01261e-09
-3.30383e-10
)
;

boundaryField
{
    back
    {
        type            empty;
        value           nonuniform 0();
    }
    ingreso
    {
        type            calculated;
        value           nonuniform List<scalar> 
14
(
-1.54286e-08
-1.54288e-08
-1.54288e-08
-1.54288e-08
-1.54286e-08
-1.54283e-08
-1.54288e-08
-1.54288e-08
-1.54286e-08
-1.54286e-08
-1.54288e-08
-1.5428e-08
-1.5428e-08
-1.54286e-08
)
;
    }
    salida
    {
        type            calculated;
        value           nonuniform List<scalar> 2(1.01411e-07 1.14589e-07);
    }
    front
    {
        type            empty;
        value           nonuniform 0();
    }
    defaultFaces
    {
        type            calculated;
        value           uniform 0;
    }
}


// ************************************************************************* //
