/*--------------------------------*- C++ -*----------------------------------*\
  =========                 |
  \\      /  F ield         | OpenFOAM: The Open Source CFD Toolbox
   \\    /   O peration     | Website:  https://openfoam.org
    \\  /    A nd           | Version:  7
     \\/     M anipulation  |
\*---------------------------------------------------------------------------*/
FoamFile
{
    version     2.0;
    format      ascii;
    class       volScalarField;
    location    "115";
    object      p;
}
// * * * * * * * * * * * * * * * * * * * * * * * * * * * * * * * * * * * * * //

dimensions      [0 2 -2 0 0 0 0];

internalField   nonuniform List<scalar> 
591
(
0.000123822
0.000123838
0.000123844
0.000123787
0.000123791
0.000123862
0.000123846
0.000123826
0.000116956
0.000123847
0.000124036
0.000122791
0.000123832
0.00011968
0.000123826
0.000123867
0.000123832
0.000123878
0.000121906
0.000123211
0.000123809
-3.52225e-06
0.000124029
0.000123809
0.000123983
0.000123833
0.000123954
0.000123942
0.000123846
0.000123858
0.000124004
0.000123976
0.000123997
0.000123997
0.000123999
0.000123321
0.000123993
0.00012381
0.000124023
0.000123935
0.000123883
0.00012399
0.000123842
0.000123869
0.000123987
0.000124008
0.000119187
0.000124013
0.000123845
0.000123952
0.000123969
0.000123996
2.3948e-05
3.05941e-05
4.78393e-05
0.000123841
0.000124018
0.000124013
0.00012401
0.000123819
0.000123905
0.00012384
0.000123835
0.000123887
0.000122517
0.000123837
0.000123842
0.000124007
0.000120688
0.000123855
0.000123844
0.000124014
0.000123995
0.000123992
0.000123998
0.000123973
0.000123813
0.000124011
0.000123815
0.000123757
0.000123586
0.000124016
0.000123975
0.000123965
0.000124023
0.000123827
0.000123908
0.000124005
0.000123968
0.00012372
0.000123979
0.000123938
0.000123946
0.000123818
0.000124021
0.000123976
0.000123519
0.000123418
0.000123596
0.000124028
0.000123936
0.000123872
0.000124035
0.000123782
0.000124036
0.00012384
0.000123835
0.000123974
0.000124031
0.000124034
0.000123928
0.00012401
0.000123853
0.000124009
0.000124026
0.000124017
0.000123972
0.000123958
0.000123534
0.000123939
0.000123839
0.00012383
0.000123914
0.000123815
0.000123988
0.000120146
0.000124037
0.000124017
0.000123584
0.000123999
0.000123828
0.000123511
0.000123979
0.000123965
0.000124002
0.000123845
0.000122582
0.000124032
0.00012383
0.000123522
0.000123601
0.000123928
0.00012402
0.000124025
0.000124017
7.61931e-06
3.681e-06
2.07386e-06
3.81647e-05
3.67039e-05
5.66382e-06
3.8318e-05
1.57433e-05
3.73023e-05
1.78103e-05
0.00012384
0.000123829
0.000124025
0.000124013
0.000124021
0.000124021
0.000124012
0.000124007
0.000124026
0.000124022
0.000123992
0.000124021
0.000124017
0.000124025
0.000123974
0.000123348
0.000124024
0.000122084
0.000124014
0.000124002
0.000123957
0.000123847
0.000124002
0.00012402
0.000124023
0.000123442
0.00012243
0.000123004
0.000123391
0.000124006
0.000124014
0.000123899
0.000123807
0.000124011
0.000122924
0.000123249
0.000123807
0.000124
0.000123698
0.000123993
0.000124022
0.000123998
0.000123665
0.000123798
0.000124018
0.00012402
0.000124024
0.000123827
0.000124001
0.000123824
0.000124028
0.000123832
0.000123832
0.000124025
0.000123621
0.000123798
0.000123843
0.000123484
0.000123979
0.000123629
0.000123918
0.000123941
0.000124012
0.000123395
0.000123904
0.000123791
0.00012379
0.000123973
0.000123741
0.000123887
0.000123806
0.000123722
0.000123782
0.000124028
0.000123788
0.000124028
0.000123887
0.000124009
0.000123848
0.000123851
0.000124032
0.000123732
0.000124015
0.00012372
0.000123771
0.000123837
0.000123814
0.000123852
0.00012384
0.000123609
0.000123811
0.000123767
0.000123973
0.000123831
0.000123694
0.000123966
0.00012324
0.000123813
0.000123128
0.000123018
0.000123822
0.000123785
0.000123825
0.000123821
0.000123799
0.000124031
0.000123867
0.000123932
0.000123884
0.000123871
0.000123883
0.000123987
0.000123635
0.000124027
0.00012367
0.000123556
0.000123856
0.000124006
0.000123582
0.000124018
0.000123934
0.000123931
0.000123963
0.000123849
0.000123827
0.000123668
0.000123779
0.000123826
0.000123863
0.000123928
0.000123986
0.000124005
0.000124011
0.000123764
0.000123874
0.000123997
0.000124006
0.000123998
0.000123789
0.000124014
0.000123892
0.000124006
0.000123749
0.000124014
0.000123735
0.000123989
0.000123881
0.000123825
1.16438e-05
2.19157e-05
0.000123756
0.000123844
0.000124031
0.00012377
0.00012403
0.000123854
0.000124013
0.000123989
0.000123717
0.000123983
0.000123811
0.000124029
0.000123848
-2.09467e-07
0.000123732
0.000123993
0.00012399
0.000123674
0.000123846
0.000123891
0.000123983
0.000123728
0.000124006
0.000123886
0.00012384
0.000123981
0.000123781
0.000123703
0.000123745
0.000123851
4.75004e-05
0.000124001
0.000123977
0.000123837
0.000124008
0.000123913
0.000123859
0.000123843
0.000123826
0.000123992
0.000123855
0.000123755
0.000123896
0.000123762
0.000124006
0.000123769
0.000123834
0.000123865
0.000123946
1.98754e-05
2.73133e-05
3.43e-05
9.64107e-06
0.00012381
3.30609e-05
2.60194e-05
0.000124004
1.9076e-05
1.70318e-05
3.81887e-05
7.57804e-06
3.99393e-05
5.60672e-06
4.08326e-05
3.69063e-06
4.28143e-05
1.87809e-06
3.64149e-05
2.31974e-05
2.94479e-05
1.49941e-05
0.000123695
0.000124016
0.000123877
0.000123895
0.000120844
0.000123929
0.00012401
0.00012398
0.000123773
0.000124016
0.000124026
0.000123994
0.000123991
0.000123753
0.000123826
0.000124011
0.000124017
0.00012385
0.000123707
0.000123807
0.000123363
0.000123813
0.000124035
0.000123998
0.000123838
0.000124023
0.000123675
0.000123848
0.000123635
0.000122799
0.000123993
0.000124005
0.000124033
0.000123693
0.000123897
0.000123633
0.000123853
0.000123845
2.60547e-05
2.18804e-05
3.304e-05
1.16198e-05
0.000124036
0.000123685
1.98223e-05
2.82619e-05
3.56065e-05
9.58981e-06
0.000123863
0.000123929
0.000123804
0.00012381
0.000123828
0.00012398
0.000123767
0.000123988
0.000123946
0.000123056
0.000123811
0.000123777
5.93924e-05
0.000123182
0.000124021
0.000123822
0.000123707
0.000124009
0.000124012
0.000123801
0.000123599
0.000123837
0.000123869
0.000123685
0.000123965
0.000122849
0.000123754
0.000123784
0.000123988
0.000100856
0.000123833
0.000123443
0.000123744
0.000124021
0.000123647
1.08976e-05
2.11163e-05
3.53725e-05
2.82116e-05
1.36636e-05
5.67139e-08
4.20917e-05
2.69196e-06
4.01632e-05
4.76392e-06
3.94203e-05
6.81657e-06
3.86281e-05
8.8591e-06
3.72947e-05
1.36753e-05
3.1732e-05
3.05958e-05
2.39432e-05
2.52654e-05
1.77674e-05
1.29399e-05
1.57094e-05
0.000124015
0.000102358
0.000123809
0.000123732
0.000124018
0.000123909
0.000124025
0.000123739
0.000123868
0.000123984
0.000123979
0.00012399
0.000123736
0.000123832
0.000123758
0.000123939
0.000123765
0.000124019
0.000123903
0.000123731
0.00012374
0.000123843
0.000123837
0.000124026
0.000124017
0.000124032
0.000123983
0.000124033
0.000123653
0.000123833
0.000124021
0.000123779
0.000123912
0.000123842
0.000123898
0.000123719
0.000123983
0.000123982
0.000123296
0.000121328
0.000123024
0.000123567
0.000123831
0.000123661
0.000123845
0.000124027
0.000124001
0.000123839
0.000123452
0.000123429
0.00012402
0.000123985
0.000123861
0.000123949
0.000123495
5.83052e-05
4.01192e-05
0.000123952
0.000123973
0.000123336
0.000122701
0.000123819
0.000123585
0.000123329
0.000123828
0.00012376
0.00012402
0.000123861
0.000123897
0.000118957
5.446e-05
0.000123866
8.1256e-05
1.86289e-06
-3.80178e-07
0.000123827
0.000123795
0.000123985
0.00012403
0.000124026
0.000124019
0.000124028
0.000123814
-2.30606e-06
0.000122775
0.000123858
0.00012396
0.000121962
0.000124018
0.000124019
0.000122248
0.000123937
0.000123986
0.000121646
0.000124031
7.63156e-05
0.000124017
0.00012377
0.000123978
0.000122327
0.000123539
0.000123623
0.000123866
0.000124033
0.00012397
0.000124018
0.000124032
0.000123819
0.000116126
)
;

boundaryField
{
    back
    {
        type            empty;
    }
    ingreso
    {
        type            zeroGradient;
    }
    salida
    {
        type            fixedValue;
        value           uniform 0;
    }
    front
    {
        type            empty;
    }
    defaultFaces
    {
        type            zeroGradient;
    }
}


// ************************************************************************* //
