/*--------------------------------*- C++ -*----------------------------------*\
  =========                 |
  \\      /  F ield         | OpenFOAM: The Open Source CFD Toolbox
   \\    /   O peration     | Website:  https://openfoam.org
    \\  /    A nd           | Version:  7
     \\/     M anipulation  |
\*---------------------------------------------------------------------------*/
FoamFile
{
    version     2.0;
    format      ascii;
    class       surfaceScalarField;
    location    "115";
    object      phi;
}
// * * * * * * * * * * * * * * * * * * * * * * * * * * * * * * * * * * * * * //

dimensions      [0 3 -1 0 0 0 0];

internalField   nonuniform List<scalar> 
1111
(
7.23746e-09
1.28178e-08
-1.60673e-08
-3.98798e-09
7.15714e-09
-1.17543e-08
1.18347e-08
-1.47237e-08
5.96096e-09
8.6967e-09
6.59999e-11
1.04408e-09
-1.21707e-09
-1.44078e-08
1.45808e-08
-1.43757e-08
1.42227e-08
1.19705e-09
-1.60057e-09
1.49162e-08
2.11293e-09
-2.38204e-09
9.18677e-09
-8.98388e-09
2.17915e-09
-6.72433e-09
-1.26093e-08
1.25949e-08
6.73882e-09
-5.01619e-08
-2.61241e-08
7.6286e-08
-8.07562e-09
7.73818e-09
7.49457e-09
3.18848e-09
3.86525e-10
-3.26387e-09
-3.11136e-10
1.5867e-08
-1.62798e-08
-2.32738e-08
2.36866e-08
-9.66714e-09
-7.90153e-09
8.80297e-09
8.76571e-09
-3.56052e-08
1.77429e-08
-3.2393e-08
5.02553e-08
9.4896e-09
-1.95825e-09
-1.42557e-08
-1.52316e-10
1.14369e-09
-2.4002e-09
1.40884e-09
-3.97516e-09
1.32616e-08
1.97355e-09
-1.126e-08
8.80661e-09
-2.71118e-09
-1.50647e-08
8.96926e-09
3.7134e-08
-2.97994e-08
-7.33459e-09
-1.93973e-08
2.47571e-10
1.72207e-08
1.92895e-09
-1.0879e-09
4.23081e-09
-1.7829e-08
1.46861e-08
-6.12295e-08
-3.96107e-09
6.51906e-08
1.33535e-10
-1.06211e-09
-3.16837e-10
1.24542e-09
-1.82538e-09
-1.36382e-08
-4.77309e-11
-1.89992e-10
1.3034e-10
1.07382e-10
-1.04267e-08
-8.70644e-09
1.3328e-08
5.8052e-09
6.86778e-10
-2.14895e-09
-8.17893e-09
9.6411e-09
8.93417e-09
7.12682e-10
-1.0011e-08
3.64166e-10
-2.85928e-09
-8.15951e-09
1.12364e-08
-2.17572e-10
1.14169e-08
-1.10735e-09
-1.50294e-09
-7.15192e-10
7.30772e-10
-4.78606e-11
3.228e-11
2.07055e-13
5.79922e-10
1.1052e-10
-6.90649e-10
-3.48029e-10
-4.10571e-11
3.78788e-10
1.02984e-11
-7.56969e-11
-6.62441e-10
1.18219e-10
6.19919e-10
-1.25869e-10
-6.6502e-10
1.04026e-09
-1.83468e-08
-2.09073e-09
-2.75393e-10
3.30102e-11
-1.05646e-10
1.33776e-08
-1.32483e-08
4.10152e-09
-3.20999e-10
4.99507e-10
2.88347e-10
-4.66855e-10
1.66085e-10
-9.31905e-10
8.29332e-10
-6.35113e-11
-1.73943e-09
1.07276e-08
-1.13702e-08
-1.86405e-10
-1.23682e-10
3.46941e-11
-8.69402e-09
1.07092e-08
-1.00908e-08
1.2299e-08
-1.71271e-08
4.47949e-09
3.48623e-10
3.68965e-11
-1.15983e-10
-1.07319e-10
1.09235e-10
6.85661e-10
-6.41239e-11
-5.94923e-08
7.42243e-08
-1.4732e-08
9.41488e-10
-1.61525e-10
-1.03061e-09
2.50644e-10
1.13074e-09
1.03082e-08
-1.37134e-08
2.27447e-09
-1.99593e-09
7.97087e-09
-8.91195e-09
2.937e-09
-6.8308e-09
5.52379e-09
5.76154e-09
-4.45453e-09
-7.99599e-09
-1.35709e-09
1.4928e-09
7.86028e-09
-1.80667e-10
-9.09134e-08
9.12989e-08
-2.04789e-10
-2.55953e-10
-8.97484e-08
9.0158e-08
-1.53738e-10
8.30789e-08
-1.49133e-09
1.09931e-10
-8.16975e-08
-2.67501e-09
-6.31752e-10
5.40654e-10
7.69512e-10
-3.68678e-10
3.86181e-09
-7.31251e-10
3.61464e-09
-6.74521e-09
-8.44825e-10
7.92535e-10
-1.4907e-08
6.5676e-09
1.01037e-08
1.08515e-09
-1.0885e-08
-3.03919e-10
-6.0179e-09
1.36966e-08
8.36588e-10
-8.51529e-09
1.44011e-08
-4.6365e-09
3.87503e-09
-1.36397e-08
1.5383e-08
1.67166e-09
-1.62585e-09
-1.71477e-10
-2.00877e-08
-7.44706e-09
2.77062e-08
1.46556e-08
-8.94846e-09
-1.80977e-09
8.11102e-09
-1.23191e-08
7.54743e-11
-4.35034e-11
-1.06258e-09
-3.60787e-08
-2.34136e-08
8.38712e-09
3.36887e-10
3.575e-09
-6.94489e-09
1.1417e-08
6.23703e-09
-5.18813e-10
2.61994e-10
4.19333e-10
-1.62514e-10
5.62962e-09
-4.86044e-09
3.71295e-09
-4.48213e-09
-3.33622e-10
-5.57236e-10
2.28416e-10
5.39701e-10
-4.62539e-10
6.41202e-11
-5.93499e-10
5.29586e-10
-1.83331e-08
2.36902e-09
1.62529e-09
1.43388e-08
1.69298e-10
-5.98823e-10
-8.92878e-11
-4.2995e-09
-1.52344e-08
1.20078e-09
5.6301e-09
1.2143e-08
-5.24529e-09
-1.25278e-08
1.63545e-08
7.73383e-10
-1.58158e-08
-1.31212e-09
-5.97832e-10
3.79469e-10
4.80356e-10
-1.76178e-10
7.51235e-11
1.01054e-10
-7.56513e-09
-3.43263e-09
4.16695e-09
-1.54346e-10
2.52059e-10
-9.77133e-11
9.95745e-10
-1.5722e-08
-6.95422e-10
1.02814e-08
-1.13254e-08
-8.17211e-10
-1.12057e-10
1.30281e-08
4.50661e-09
-4.22509e-09
-1.33097e-08
2.73926e-11
7.27196e-09
-8.07003e-09
6.32185e-09
-1.51964e-09
-9.22493e-09
8.38298e-09
2.36159e-09
-1.99368e-09
7.12308e-10
-1.3953e-08
-7.7043e-11
-7.73031e-11
5.13522e-10
5.15011e-10
-9.02452e-09
8.01923e-10
1.72515e-08
-1.69887e-09
-1.17157e-08
1.31206e-08
-1.40492e-09
1.23225e-08
1.39094e-08
-1.54982e-08
-1.07338e-08
-4.15188e-10
8.0086e-10
-3.85672e-10
2.75442e-11
2.2857e-10
-2.56115e-10
-3.94655e-10
1.03783e-09
-6.43176e-10
1.18007e-09
-9.34395e-10
-2.45672e-10
-1.04713e-08
1.05008e-09
9.42121e-09
1.77326e-09
-5.93192e-10
8.98593e-09
-1.54322e-08
8.11297e-09
-9.59538e-09
7.24124e-11
3.53612e-09
-4.20048e-10
-2.15978e-09
2.2322e-09
-6.3064e-09
7.64356e-09
-1.33716e-09
-3.50366e-10
4.33004e-09
-1.17856e-10
1.72442e-08
-1.44767e-08
-1.63673e-09
-6.29191e-09
5.49908e-09
6.15794e-11
-1.63129e-10
5.61962e-09
-5.5776e-09
-4.2023e-11
6.78277e-09
4.60839e-09
-8.45132e-11
-1.58502e-08
1.05111e-08
1.76617e-08
5.86162e-09
8.19312e-09
8.14849e-09
-6.84769e-09
1.47586e-09
-1.19471e-08
-1.06769e-11
1.68965e-09
-1.30279e-08
2.65106e-09
-4.18864e-10
1.09138e-08
-1.01404e-08
-3.16354e-10
-6.26727e-10
-1.38406e-08
7.92954e-09
6.35856e-10
1.63425e-11
-8.87124e-09
4.93921e-09
-2.99709e-08
-1.25241e-08
-2.87317e-09
1.55661e-09
1.41471e-08
1.11389e-08
-1.0872e-08
-1.44139e-08
1.53393e-08
-3.20475e-09
-1.21345e-08
1.59148e-09
4.04639e-09
-7.82111e-10
-8.55759e-10
-7.6005e-10
1.03973e-09
5.76082e-10
-1.95961e-10
3.11537e-10
3.03757e-10
6.21479e-08
-6.21742e-08
2.62372e-11
6.20672e-08
-6.23715e-08
3.04371e-10
8.37635e-10
6.473e-08
-6.55574e-08
8.27351e-10
6.41218e-08
6.08207e-10
-2.23618e-10
-6.65027e-08
9.45252e-10
-6.20639e-08
6.19291e-08
1.34784e-10
1.31433e-09
-6.7817e-08
-6.22238e-08
1.59881e-10
1.28377e-08
-4.61093e-10
1.08343e-09
-3.6956e-09
3.07327e-09
2.57127e-10
-1.11781e-09
8.02702e-10
-4.43982e-10
1.33e-09
-1.5374e-09
6.51384e-10
1.31114e-09
-1.36383e-09
9.18165e-12
-2.70913e-11
-3.48456e-09
2.57462e-09
-1.7954e-09
2.70533e-09
-2.4185e-10
-2.65418e-09
2.43494e-09
-3.39655e-09
-5.91842e-09
5.45713e-10
-5.36252e-10
1.06236e-09
1.07034e-09
-6.38747e-09
7.82485e-09
3.17102e-09
1.97138e-08
-4.37457e-09
-6.30591e-10
2.71393e-10
9.04911e-10
-1.00586e-08
-2.60201e-08
5.19877e-09
-4.14159e-09
-3.21846e-09
2.16129e-09
7.99053e-11
2.63571e-11
2.72525e-10
-2.43069e-09
3.24855e-09
9.06271e-09
6.35949e-10
-6.17778e-11
2.01666e-09
-2.19673e-09
1.64526e-09
1.46989e-08
1.33576e-08
-2.69186e-08
3.2727e-08
6.30625e-09
-2.28642e-08
-1.03607e-08
1.85883e-08
-1.80808e-08
1.06314e-08
2.85715e-11
-2.83803e-10
-1.1086e-09
-1.58999e-09
-2.75326e-09
3.02808e-09
1.52308e-08
-6.57081e-10
-1.38614e-08
-1.02137e-09
-2.07269e-09
4.3988e-10
1.54943e-08
1.77928e-08
1.36857e-08
7.85958e-10
-1.76006e-09
-1.27116e-08
-1.35036e-09
5.98788e-09
1.26704e-08
-3.53734e-10
-9.38012e-10
-3.70342e-09
2.8358e-09
3.44225e-09
2.52425e-09
1.46322e-08
4.35799e-09
-1.44836e-08
1.81979e-08
-1.76628e-09
2.27187e-09
-3.24261e-09
1.93681e-09
-4.97376e-09
1.29089e-08
-1.19103e-08
-1.40586e-08
2.90007e-10
8.79485e-09
-1.74733e-09
1.45832e-09
1.35136e-09
-8.66978e-09
6.83042e-10
-4.53733e-09
-5.98771e-09
1.21653e-08
-1.48474e-08
9.20713e-10
1.69611e-09
-2.20207e-09
1.69212e-08
-1.64152e-08
-1.18039e-09
1.4209e-08
3.15143e-09
-4.53415e-09
-1.40495e-08
7.61923e-09
-1.7519e-08
-8.18107e-09
6.99165e-09
5.89622e-09
1.47239e-08
-1.02025e-08
2.98169e-09
9.58242e-09
9.77787e-09
3.9086e-09
-4.25835e-09
2.18717e-08
-1.9352e-08
5.09959e-09
-1.07805e-08
2.16944e-09
5.74363e-09
1.40795e-08
-4.32729e-10
1.28403e-08
-1.35879e-08
-1.94633e-09
1.44538e-09
-4.38972e-10
9.39918e-10
1.11289e-08
-6.35604e-09
7.37014e-09
-1.11739e-08
1.47853e-09
-4.73881e-09
1.15782e-08
-1.20847e-08
-7.59926e-09
9.29181e-09
9.43637e-09
1.30071e-08
4.73015e-10
-1.39128e-08
1.34716e-09
7.62907e-10
-1.12135e-08
-6.72114e-09
1.03354e-08
-1.22805e-09
2.50592e-09
-9.03264e-09
4.75189e-09
-5.38303e-09
1.17261e-08
-3.45454e-09
-1.19551e-08
3.68352e-09
-4.44763e-09
1.14349e-08
1.71371e-09
1.09177e-09
-5.09481e-09
-1.79533e-08
1.06053e-08
1.24427e-08
6.80983e-10
-1.11538e-08
-1.01008e-08
1.61597e-08
1.27343e-08
2.89763e-09
-9.8883e-09
-1.33614e-08
-3.20685e-10
-1.27548e-08
1.78218e-10
-7.70991e-10
1.18291e-08
1.25566e-08
-8.23616e-09
1.67903e-08
-1.61381e-08
3.70582e-09
-5.37269e-10
1.82995e-09
1.30461e-08
-3.94479e-09
-1.28081e-08
-4.89862e-09
2.02327e-09
4.56499e-09
1.24787e-08
-7.23702e-09
1.03068e-09
-1.7047e-09
2.5631e-10
-4.97944e-10
6.0082e-09
2.64949e-08
9.56453e-11
-8.92843e-09
8.83279e-09
2.87121e-08
-2.24563e-08
2.21354e-08
1.98538e-08
-1.27171e-08
-2.74885e-09
1.51916e-08
1.31297e-10
-1.21489e-08
-4.74585e-10
-5.9913e-09
-1.8151e-09
2.12125e-09
1.40756e-09
-6.03607e-10
-1.12292e-08
1.1704e-08
1.28794e-10
2.89458e-09
-4.85619e-09
-1.13015e-08
1.08287e-08
-9.4545e-10
-1.09994e-08
-3.1721e-10
-1.15132e-08
-2.3594e-09
-1.21694e-08
2.1276e-09
7.8711e-09
5.16752e-09
-6.47751e-10
-1.18287e-08
1.18728e-08
5.24201e-10
-8.98255e-09
5.07948e-09
-1.62105e-09
2.01657e-09
-1.69799e-09
-1.30685e-08
-1.23132e-08
1.17611e-08
-1.01292e-08
-1.58459e-08
1.01249e-08
9.31723e-09
7.74197e-10
2.78751e-09
-1.17159e-08
1.16453e-08
1.66237e-09
3.84842e-09
2.45805e-10
-4.21796e-10
-1.57632e-10
-4.16745e-09
2.43995e-09
-3.452e-10
1.24175e-10
-1.46831e-10
2.26563e-11
-2.73984e-09
1.32128e-08
2.26133e-09
2.5132e-09
4.59121e-10
-1.19069e-09
-6.83106e-10
-2.17653e-09
-1.22761e-10
1.31697e-08
1.02295e-08
-2.69489e-10
6.67879e-09
-1.25847e-09
-5.15083e-09
-9.88193e-09
-5.1737e-09
9.26345e-11
3.15404e-11
4.84089e-09
1.3749e-09
-1.73695e-08
-2.37853e-10
-6.73117e-10
-2.77477e-09
1.03064e-09
3.29211e-09
6.19506e-08
-8.56907e-11
-6.18649e-08
6.23748e-08
1.8885e-10
-6.25636e-08
-1.40929e-08
-3.98489e-10
1.44174e-08
7.3949e-11
3.29808e-09
-1.66386e-09
2.36933e-09
1.80045e-09
-4.57863e-09
-1.92935e-10
-4.56815e-10
3.71337e-10
-7.70355e-11
3.3977e-10
-2.17647e-10
1.98292e-08
9.90753e-10
-1.5979e-08
-7.97265e-11
-1.95389e-09
1.26922e-08
2.30779e-09
1.83206e-09
5.34215e-09
-2.14748e-09
-7.72312e-08
-2.41785e-08
-5.0937e-09
1.58379e-08
2.51739e-09
2.10272e-10
-2.732e-09
-9.28169e-10
1.56718e-10
-1.66562e-10
-9.4226e-09
-3.7373e-10
9.79633e-09
-1.09637e-08
-6.54243e-09
1.0785e-08
-9.5683e-09
8.72878e-09
3.39253e-10
1.3164e-09
9.0092e-09
-9.02272e-09
1.35138e-11
5.21059e-10
8.77979e-11
1.10104e-08
3.76437e-10
-6.01384e-10
1.24675e-11
-1.42599e-08
-4.134e-10
-1.38996e-08
1.28458e-08
-1.19458e-08
-6.6036e-08
6.49942e-08
1.04181e-09
1.68711e-10
-1.42354e-10
1.21872e-08
-1.51648e-10
4.81648e-12
-2.15427e-09
2.74528e-09
-3.40003e-09
-1.34653e-08
-1.62702e-09
2.57914e-09
-4.62027e-09
-1.42246e-08
1.47536e-09
5.52007e-09
9.78888e-09
-9.16099e-09
-1.71882e-10
2.02336e-11
-9.26972e-09
-1.35387e-08
1.50961e-10
-6.26937e-08
2.36389e-10
6.24573e-08
6.9541e-10
6.34264e-08
-2.23539e-10
-1.71773e-09
-1.45155e-08
1.07929e-10
-6.341e-08
6.33021e-08
1.83315e-10
-6.29517e-08
6.27684e-08
2.69354e-10
6.17967e-08
1.50362e-10
-6.19471e-08
6.16279e-08
1.6881e-10
-8.78886e-08
8.84977e-08
-9.09864e-13
9.33921e-08
-9.30986e-08
-2.67263e-10
-8.66282e-08
-4.33059e-10
9.33511e-08
-1.82656e-10
-8.49156e-08
-7.67349e-10
9.34817e-08
1.73762e-10
-5.22336e-10
1.9617e-09
9.23577e-08
-6.93083e-08
6.21375e-08
-6.23182e-08
-6.29496e-08
6.14855e-08
1.42394e-10
-3.18995e-09
2.97524e-09
-1.42689e-08
3.64633e-11
5.6171e-11
9.23856e-10
8.68032e-09
-1.13915e-08
3.83476e-08
-3.4581e-08
-1.67945e-08
1.3828e-08
-2.50444e-11
-1.87512e-10
9.85735e-11
4.71088e-10
-1.02952e-10
2.78327e-10
4.35621e-09
1.06491e-09
-3.48431e-09
-9.90457e-11
1.32056e-10
-6.43519e-11
-2.62319e-09
1.3362e-08
2.47402e-09
-1.44175e-08
-2.62074e-09
-3.19603e-09
5.46015e-09
1.05734e-09
-2.59443e-09
1.44134e-08
-1.21362e-09
-1.31474e-09
1.16365e-09
-8.1473e-09
-1.90914e-08
-1.35441e-08
8.08686e-09
5.74724e-09
-1.61516e-10
-5.84298e-10
2.86707e-09
1.45017e-08
2.2953e-09
-1.88085e-09
-3.38346e-10
3.8854e-10
-2.13323e-10
1.58733e-08
-6.16617e-10
-1.56305e-08
6.38906e-10
2.46609e-10
3.44077e-10
-2.8654e-10
3.33967e-09
-1.60898e-08
3.77385e-10
-1.42371e-09
-2.00168e-09
-2.26888e-09
1.58342e-08
-9.05911e-08
-1.39026e-10
9.16782e-08
-1.90412e-10
-8.91636e-08
-4.768e-10
9.31012e-08
-2.75202e-10
-9.29117e-08
-5.21619e-10
-1.49528e-09
1.69437e-08
9.19795e-08
-1.96637e-10
2.95349e-11
-2.20882e-10
9.61711e-09
2.34027e-09
-7.00722e-09
-1.2346e-08
-5.67505e-09
8.35479e-09
1.54216e-09
-6.72594e-09
-5.96965e-09
9.068e-09
-2.74554e-11
1.01144e-08
1.94959e-08
-1.79829e-08
3.0915e-09
-1.28543e-08
3.13762e-09
-6.99574e-08
3.92136e-09
-2.05981e-08
-1.30364e-08
-4.27389e-10
-5.91413e-09
-1.53195e-08
9.08468e-09
-1.50531e-08
3.57157e-10
3.02777e-10
-1.97038e-09
-1.68201e-08
1.72041e-08
6.94122e-09
-7.57298e-09
-4.22831e-09
1.5365e-08
-1.69554e-09
7.43959e-10
-6.70836e-10
-7.17651e-12
1.19641e-08
3.313e-09
7.09113e-08
-1.82343e-08
6.22159e-10
-1.51258e-08
-2.03651e-10
-2.32409e-10
-1.62946e-10
6.09481e-08
-6.12233e-08
-6.33805e-08
-6.31484e-08
-6.41923e-11
-2.62198e-10
-9.25853e-08
-6.04511e-08
6.24128e-08
6.51041e-08
-6.02773e-08
6.45818e-08
-6.046e-08
6.38145e-08
-6.07272e-08
6.33814e-08
9.23082e-08
2.31365e-10
-6.32865e-09
7.51313e-08
-6.54897e-08
1.84659e-11
-1.84659e-11
-1.66246e-10
-2.91214e-10
1.54734e-08
3.53402e-12
-3.53402e-12
2.62348e-10
1.51244e-09
1.39164e-08
1.34904e-08
-2.7006e-09
3.71175e-09
6.7525e-09
1.67608e-09
3.23454e-10
-2.15568e-10
-2.95604e-09
1.45677e-08
1.48409e-08
-4.29377e-09
1.1821e-08
1.4755e-10
1.20278e-10
2.62371e-09
-7.29159e-10
-1.43153e-09
-5.85936e-09
-1.85079e-10
-3.56723e-10
1.53146e-08
2.0329e-10
3.09265e-11
1.41609e-08
-2.62918e-08
1.79072e-08
2.71982e-09
1.16416e-09
2.50022e-09
-3.72265e-09
1.94475e-08
-1.8225e-08
-5.85775e-11
-9.76184e-11
-1.44126e-09
-7.92145e-08
-7.07496e-08
1.1736e-09
-2.47774e-10
5.86308e-10
2.30161e-08
1.86152e-08
-6.45829e-09
7.87711e-11
-4.17226e-09
-2.52486e-09
2.99664e-08
1.61767e-10
1.48185e-08
7.35781e-08
3.09895e-11
4.95535e-10
-1.26677e-10
-1.83036e-10
-3.5274e-09
2.43708e-08
-1.48674e-08
8.28209e-10
-1.42093e-08
-3.77047e-11
2.04109e-08
-2.87766e-08
9.71462e-10
1.80256e-09
-1.30383e-10
)
;

boundaryField
{
    back
    {
        type            empty;
        value           nonuniform 0();
    }
    ingreso
    {
        type            calculated;
        value           nonuniform List<scalar> 
14
(
-1.54286e-08
-1.54288e-08
-1.54288e-08
-1.54288e-08
-1.54286e-08
-1.54283e-08
-1.54288e-08
-1.54288e-08
-1.54286e-08
-1.54286e-08
-1.54288e-08
-1.5428e-08
-1.5428e-08
-1.54286e-08
)
;
    }
    salida
    {
        type            calculated;
        value           nonuniform List<scalar> 2(1.0141e-07 1.1459e-07);
    }
    front
    {
        type            empty;
        value           nonuniform 0();
    }
    defaultFaces
    {
        type            calculated;
        value           uniform 0;
    }
}


// ************************************************************************* //
