/*--------------------------------*- C++ -*----------------------------------*\
  =========                 |
  \\      /  F ield         | OpenFOAM: The Open Source CFD Toolbox
   \\    /   O peration     | Website:  https://openfoam.org
    \\  /    A nd           | Version:  7
     \\/     M anipulation  |
\*---------------------------------------------------------------------------*/
FoamFile
{
    version     2.0;
    format      ascii;
    class       volVectorField;
    location    "54.5";
    object      U;
}
// * * * * * * * * * * * * * * * * * * * * * * * * * * * * * * * * * * * * * //

dimensions      [0 1 -1 0 0 0 0];

internalField   nonuniform List<vector> 
591
(
(0.000822683 -3.1841e-05 1.21841e-18)
(0.00080846 -2.79847e-05 -6.63596e-19)
(0.000855912 -2.41397e-05 5.6918e-20)
(0.000851876 -3.84946e-06 -1.49185e-19)
(0.000834782 9.17933e-06 2.2536e-19)
(0.000800111 -4.04015e-05 -1.39677e-19)
(0.000551301 -0.00032694 8.06484e-19)
(0.000801504 2.93174e-06 2.06543e-18)
(0.00573624 0.0024945 9.87809e-19)
(0.000793172 -1.52943e-05 2.45041e-18)
(5.16977e-05 0.000173079 1.21857e-18)
(0.000920766 0.00136814 9.4123e-21)
(0.000797208 6.69264e-06 1.31691e-18)
(0.0016022 0.00238069 -7.87915e-19)
(0.000802778 4.5947e-06 -4.38459e-19)
(8.20333e-05 -0.000221878 2.51057e-22)
(0.000134505 0.000676595 7.05204e-19)
(0.000819537 5.24397e-05 -4.89992e-19)
(0.00193981 0.000386429 4.73227e-19)
(0.00135509 0.000259028 -2.47204e-19)
(0.000833165 -1.11284e-06 3.72046e-19)
(0.00340005 0.00655889 -8.15064e-20)
(2.98383e-05 7.24205e-05 2.71027e-19)
(0.000833326 -7.9968e-06 -4.50253e-19)
(1.36031e-05 -1.82698e-05 3.59049e-19)
(0.00076501 2.98056e-05 0)
(9.21179e-05 0.00047715 1.60005e-19)
(0.000532646 1.77558e-05 -1.78903e-19)
(0.000750688 4.9621e-05 1.14993e-18)
(0.000815037 3.58488e-05 5.91791e-19)
(6.09763e-05 -2.78002e-06 -3.95697e-24)
(3.73394e-05 -4.91696e-05 3.52295e-19)
(4.00429e-05 -3.41033e-06 -4.64328e-20)
(4.86899e-05 -1.14354e-05 0)
(5.77776e-05 -1.34695e-05 1.13185e-18)
(0.00117288 0.000129144 1.79953e-19)
(3.43328e-05 -5.98133e-06 4.47296e-20)
(0.000827034 9.94818e-06 3.13988e-23)
(2.94246e-05 4.6115e-05 2.66116e-19)
(2.73906e-05 -0.000117998 -8.54913e-19)
(0.000615799 -0.000202691 9.59835e-19)
(2.7922e-05 -7.63986e-06 4.54976e-20)
(0.000796329 -2.6103e-06 -1.57797e-18)
(0.000828064 3.50846e-05 -6.8874e-19)
(1.94289e-05 -9.07653e-06 0)
(5.78414e-05 8.32605e-06 8.52149e-20)
(0.00134068 0.00450778 8.93168e-19)
(7.94012e-05 1.85157e-05 8.63899e-20)
(0.000798228 1.84762e-05 0)
(0.000376094 -0.000188035 6.77968e-19)
(0.000377461 0.000276432 5.12059e-21)
(0.000390118 5.72384e-05 -1.00412e-18)
(0.00634799 0.010942 -7.68464e-19)
(0.00622503 0.0107973 1.52881e-20)
(0.0056145 0.0103807 1.45583e-18)
(0.000810893 2.02045e-05 0)
(6.96319e-05 3.34484e-05 0)
(0.000318288 2.19657e-05 1.18092e-23)
(6.60928e-05 1.22554e-05 -3.4657e-19)
(0.000817783 -8.09665e-06 0)
(0.000626339 2.83339e-05 3.17678e-19)
(0.000827444 1.57977e-06 2.21103e-18)
(0.000791567 2.0676e-05 -5.44409e-19)
(0.000797972 1.72953e-05 -3.15861e-19)
(0.0017163 0.000470836 5.42333e-19)
(0.000792843 7.0529e-06 -1.15508e-18)
(0.000823377 9.91165e-06 -5.24239e-19)
(8.53373e-05 -2.94079e-07 -1.73467e-19)
(0.000687181 0.00226899 0)
(0.000829333 3.0272e-05 0)
(0.000770756 1.52137e-05 -1.38989e-18)
(4.01124e-05 1.73364e-05 0)
(0.000286086 0.00027333 3.26936e-19)
(4.39503e-05 -1.82842e-05 0)
(4.48042e-05 -6.2054e-06 1.59524e-19)
(2.10845e-05 -4.88729e-05 -3.36786e-20)
(0.000782898 7.32595e-05 2.47105e-19)
(4.66589e-05 1.18706e-05 0)
(0.000794486 5.70363e-05 4.47478e-19)
(0.000764655 0.000294851 2.10794e-19)
(0.000965128 6.05987e-05 -3.98075e-20)
(4.5095e-05 2.47805e-05 -4.52008e-20)
(6.47076e-06 -2.90914e-05 0)
(0.000428613 0.00021956 1.70235e-19)
(2.80651e-06 2.61447e-05 0)
(0.000779478 3.29991e-05 -6.08427e-19)
(0.00059001 -0.000120545 0)
(6.8461e-05 -1.72975e-07 -1.74535e-19)
(4.34944e-06 -3.96712e-05 0)
(0.000821882 0.000244628 -3.41378e-19)
(4.48213e-06 -1.75767e-05 0)
(0.000419414 0.000324312 -1.28297e-23)
(0.000522641 0.00011391 0)
(0.000800387 4.77405e-05 -3.85955e-24)
(2.93246e-06 1.6946e-05 -4.2185e-20)
(0.000446492 -5.86076e-06 1.76414e-18)
(0.00102392 7.2546e-05 4.16175e-20)
(0.00086599 4.32403e-05 6.41007e-22)
(0.000733443 0.000657186 2.69578e-19)
(6.35563e-06 5.3906e-05 0)
(3.57662e-06 -6.48697e-05 -3.12433e-19)
(-9.12746e-06 -0.000120743 -1.09997e-18)
(3.44341e-06 8.49807e-05 -5.96391e-19)
(0.000644829 -1.57999e-05 0)
(7.37818e-06 0.000110518 0)
(0.000802201 1.86745e-05 2.20038e-18)
(0.000779543 2.07391e-05 1.52898e-18)
(0.000414992 -6.42128e-05 0)
(4.52906e-05 0.00022325 -8.95587e-19)
(-9.20793e-07 0.000179666 4.96622e-19)
(6.65464e-05 0.000425407 6.25179e-19)
(0.000302022 9.13617e-05 -9.37372e-19)
(0.000803427 1.87796e-05 1.37388e-19)
(0.000263028 -2.88327e-05 5.31395e-19)
(3.99657e-06 3.67139e-05 0)
(2.52877e-05 0.00029628 -1.09404e-18)
(0.00031741 0.000326298 -1.61748e-19)
(3.86552e-06 -5.18492e-05 1.46604e-19)
(0.00066873 0.000811778 0)
(0.000364915 0.000390413 5.74573e-20)
(0.000811033 8.48345e-06 1.07049e-18)
(0.000797761 4.70917e-07 -2.68807e-18)
(7.27697e-06 -7.36341e-05 0)
(0.000690145 -2.80982e-05 -1.12359e-19)
(0.000319767 -9.48728e-05 1.24365e-18)
(0.00265187 0.000798124 -3.36017e-19)
(3.86757e-06 0.000141301 -6.1322e-19)
(1.50667e-06 0.000172266 1.61944e-18)
(0.000743719 2.04582e-05 -3.89885e-20)
(6.71125e-05 -1.18163e-05 -7.50412e-19)
(0.000801297 2.42105e-05 -3.88523e-19)
(0.000791648 2.61233e-05 -4.10374e-20)
(4.21197e-05 0.00034295 -5.96862e-19)
(0.000478965 7.29968e-05 -4.94084e-19)
(5.18198e-05 -2.8443e-06 1.56205e-19)
(0.000826788 2.08536e-05 -1.0881e-18)
(0.00158087 0.000234365 -1.13665e-18)
(3.47811e-06 6.80348e-05 4.96471e-19)
(0.000806876 2.01852e-05 -4.95154e-19)
(0.000901038 0.000540045 -7.85341e-20)
(0.000139659 0.000802703 0)
(0.000572802 6.58617e-05 0)
(0.000273965 5.85164e-05 -1.61018e-18)
(6.50939e-05 6.09922e-05 -1.37453e-18)
(3.23711e-05 2.18463e-05 0)
(0.00424716 0.00740011 -1.01985e-20)
(0.0042255 0.00737159 3.16471e-20)
(0.00442765 0.00757435 -4.96835e-21)
(0.00420668 0.007736 0)
(0.00419909 0.0076015 5.77173e-19)
(0.00424435 0.00740109 -9.19895e-20)
(0.00421026 0.00804402 4.84377e-19)
(0.00428955 0.00742171 0)
(0.00420837 0.00853768 6.16679e-19)
(0.00432617 0.00745018 2.23916e-19)
(0.000817039 5.20773e-07 -1.37276e-18)
(0.00076206 5.09691e-05 0)
(0.000215505 5.88563e-05 1.27728e-19)
(5.25738e-05 1.72607e-05 8.72127e-20)
(7.99504e-05 4.73758e-05 6.80235e-19)
(0.000108204 4.43349e-05 -3.41776e-19)
(0.000103246 8.30448e-06 0)
(5.07164e-05 5.78135e-06 8.18627e-20)
(0.000205343 0.000137562 0)
(0.000167481 4.78113e-05 -5.24425e-20)
(0.000340658 0.000225876 -5.09398e-21)
(5.75917e-05 4.50556e-05 -4.37794e-19)
(9.30491e-05 3.0084e-05 -8.52744e-20)
(9.21597e-05 6.46822e-05 1.31235e-21)
(0.00025238 0.000368995 -6.66356e-19)
(0.0001074 0.00101485 0)
(4.34335e-05 5.46847e-05 3.43171e-19)
(0.000205253 0.0017582 0)
(0.000207092 0.0002564 7.0486e-19)
(4.06112e-05 -4.30216e-06 1.11516e-19)
(0.00047739 0.000166343 -1.72353e-19)
(0.00075406 2.59734e-05 -1.92477e-18)
(4.51665e-05 -9.33448e-07 4.3169e-24)
(0.00015126 2.89268e-05 2.24658e-19)
(0.000242538 9.78265e-05 -8.99603e-20)
(0.0008805 0.000709272 3.35036e-19)
(0.000718368 0.00163103 -9.23866e-21)
(0.00038554 0.00142831 -9.39206e-21)
(0.00102103 0.000551945 0)
(0.000106485 -1.34984e-05 1.11908e-18)
(0.000119055 1.96659e-05 -4.4329e-20)
(0.000444773 -0.000284979 -1.13608e-18)
(0.000808103 3.43187e-05 0)
(0.000183429 9.87547e-06 3.63408e-19)
(0.000301005 0.0013219 0)
(0.00106455 0.000768076 -7.30413e-20)
(0.000824821 3.59197e-05 -1.86399e-19)
(8.16431e-05 -2.00919e-05 -3.00082e-19)
(0.000820211 0.000320245 -2.08114e-20)
(6.21759e-05 -2.15863e-05 -5.99703e-19)
(0.000226028 0.000178989 8.64125e-20)
(0.000228346 0.000310855 -3.45109e-19)
(0.000879215 0.000244568 0)
(0.000808613 4.84609e-05 0)
(0.000261411 0.000142268 1.76899e-19)
(0.00023443 8.49288e-06 1.67152e-24)
(0.000184402 0.00020907 0)
(0.000288115 0.000654704 -5.55852e-21)
(0.000341357 4.44228e-06 0)
(0.000361247 0.000601294 0)
(0.000110715 8.56789e-05 -1.34712e-21)
(0.000809901 2.1801e-05 -9.39969e-19)
(0.00080965 1.75038e-05 7.92765e-19)
(0.000130631 6.14161e-05 -1.49903e-19)
(0.000951073 0.00015254 8.50918e-20)
(0.000832603 4.5097e-05 3.32992e-19)
(0.000811832 2.30829e-05 -2.93039e-19)
(0.00100981 0.000409342 0)
(0.000433986 0.00012336 6.24634e-19)
(0.000892087 0.000318426 2.09205e-20)
(0.000568993 0.000159402 0)
(0.000271558 0.000446398 4.09751e-19)
(0.000260667 0.000220572 -8.44418e-20)
(0.00109341 0.00037584 -7.82309e-19)
(0.000614721 0.000107874 -1.79352e-19)
(0.000802283 7.37162e-05 -7.45385e-21)
(0.000835205 2.96617e-05 9.38884e-20)
(8.7567e-05 -8.84123e-05 -1.982e-18)
(0.000733855 0.000382395 2.193e-19)
(0.000659337 6.19247e-05 2.30688e-20)
(0.00070096 0.00027855 1.59199e-23)
(0.000723996 0.000457641 -4.09749e-19)
(0.000840971 3.52349e-05 9.06676e-20)
(7.35041e-05 8.31152e-05 0)
(0.000650681 0.000417376 -4.6594e-20)
(0.000184294 0.000100192 0)
(0.000373255 0.000502282 -2.64906e-19)
(0.000309362 0.000171868 0)
(0.0006693 0.000203126 3.55345e-19)
(0.000643301 0.000261433 -4.37391e-20)
(8.22008e-05 0.000106356 6.19352e-19)
(0.000874127 9.14653e-05 -1.61962e-18)
(6.00327e-05 2.37105e-05 2.57274e-19)
(0.000879109 6.16573e-05 -1.68289e-18)
(0.000834015 8.50099e-05 1.63131e-19)
(0.000806068 2.92515e-05 1.8982e-18)
(0.000807868 2.96469e-05 -1.30032e-19)
(0.00072884 7.35852e-05 0)
(0.000806229 2.91815e-05 8.95942e-19)
(0.000949548 0.00022917 -4.27247e-19)
(0.000763895 8.85809e-05 -4.83834e-19)
(0.000774544 0.000228436 -8.81521e-20)
(0.00022246 -0.00014731 -2.08011e-18)
(0.000736949 8.26929e-05 8.87394e-19)
(0.000638322 0.00059698 0)
(0.000104208 -0.000111397 0)
(0.00120934 0.000470526 4.97273e-19)
(0.000671407 -6.60454e-05 -3.23515e-18)
(0.00133238 0.00042676 5.7619e-19)
(0.00123224 0.000719204 -6.38447e-20)
(0.000804655 3.26443e-05 -2.1086e-19)
(0.000829084 6.82014e-05 -1.42438e-18)
(0.000813735 2.12726e-05 1.5695e-18)
(0.000815046 2.98629e-05 9.67344e-20)
(0.000666668 0.000349915 -4.40537e-20)
(0.000103059 0.000127958 5.21459e-24)
(0.000740397 -4.76669e-05 2.65185e-19)
(0.000225456 -0.00024494 -7.33178e-19)
(0.00061518 0.00018826 0)
(0.00069876 3.81399e-05 9.9075e-20)
(0.000679323 1.03638e-05 -3.80943e-19)
(0.0003851 0.000174234 3.93478e-20)
(0.000799951 0.000502115 -1.65522e-19)
(0.000150789 7.99605e-05 2.8628e-25)
(0.000807734 0.000406647 0)
(0.00097271 0.000320665 4.15908e-20)
(0.000746092 -8.24576e-05 -6.16533e-19)
(0.000344399 0.000110048 4.97941e-19)
(0.000901368 0.000422767 0)
(5.13044e-05 3.30892e-05 1.33753e-19)
(0.000477547 0.000270297 2.14013e-19)
(0.000483445 -0.000133977 -7.09646e-19)
(0.000150549 -0.000150717 -1.05911e-18)
(0.000820308 2.6801e-05 -4.78871e-19)
(0.00078595 -0.000100648 -1.94243e-19)
(0.000554318 0.000726737 -1.1747e-18)
(0.000840175 4.56139e-05 -6.73315e-20)
(0.000669003 -2.71465e-05 1.26208e-18)
(0.000690818 9.92937e-05 2.27859e-20)
(0.000524174 0.000212932 -1.65732e-19)
(3.4927e-05 -2.3048e-05 -8.76111e-20)
(0.000176665 -3.6738e-05 2.40686e-18)
(2.19144e-05 8.39512e-07 -1.9489e-19)
(0.000815957 0.000106558 3.63719e-19)
(0.000651958 0.000137601 0)
(0.000192931 -7.37745e-05 -1.04842e-18)
(0.00012528 -1.29901e-05 3.13006e-19)
(0.000116601 -3.3921e-05 8.12311e-24)
(0.000791051 0.000108907 -3.19367e-19)
(0.000156067 -8.40318e-06 0)
(0.000578754 0.000243136 0)
(0.000111164 0.000333507 -3.62951e-19)
(0.000852931 9.97306e-05 2.09803e-18)
(1.78706e-05 1.34372e-06 0)
(0.000870868 5.1096e-05 0)
(4.74213e-05 -2.63608e-05 0)
(0.000814384 4.10506e-05 -4.45601e-21)
(0.000793896 -5.31236e-05 0)
(0.00425991 0.00740624 8.07078e-20)
(0.00436173 0.00748594 1.43589e-19)
(0.00084343 -6.07209e-07 0)
(0.000776684 -5.31744e-05 8.11156e-19)
(0.000153209 0.000129054 1.49252e-19)
(0.000847035 7.15807e-05 8.07995e-19)
(0.000131536 0.000105681 2.34465e-20)
(0.000771569 -3.25688e-05 6.25247e-19)
(3.68957e-05 1.059e-05 0)
(3.143e-05 -1.48049e-05 -4.48623e-20)
(0.000887683 5.0169e-05 -4.86741e-19)
(3.77297e-05 -3.36983e-05 -6.70006e-19)
(0.000749004 0.00011945 -4.23381e-20)
(0.000168039 0.000166739 -1.88153e-19)
(0.000812923 2.30764e-05 0)
(0.00468262 0.00815388 9.02235e-22)
(0.000172606 0.0007857 3.33643e-19)
(0.000125032 -5.39059e-05 -9.1481e-19)
(6.61252e-05 -3.51803e-05 -1.16911e-18)
(0.000680572 1.54152e-05 1.89921e-20)
(0.000577746 0.000410995 0)
(0.00041311 0.000440153 -2.56401e-19)
(9.36507e-05 -5.73193e-05 1.18402e-18)
(0.000638002 1.18962e-06 7.70326e-20)
(4.45043e-05 2.25215e-06 4.07218e-19)
(0.000682847 -5.69414e-05 1.17206e-18)
(0.000808629 3.11399e-05 -5.96205e-19)
(7.37449e-05 -5.54568e-05 1.70971e-18)
(0.000841692 -1.39664e-05 -5.24142e-24)
(0.000657008 7.62354e-06 -3.76639e-20)
(0.000861551 6.58021e-05 0)
(0.000830987 3.41858e-05 0)
(0.00591709 0.00723684 2.59467e-19)
(2.29484e-05 -1.44031e-06 -1.19609e-19)
(0.00014345 -9.28502e-05 7.73171e-19)
(0.000716798 0.000120775 -6.96679e-19)
(2.63749e-05 -3.01799e-07 2.0155e-19)
(0.000601964 -3.18689e-05 -7.24073e-19)
(0.000734956 3.58909e-05 1.55861e-18)
(0.000697403 0.000158581 -3.55551e-19)
(0.000807349 -1.34381e-05 3.60278e-19)
(8.35356e-05 -3.21206e-05 1.11639e-18)
(0.000797377 8.13717e-06 -3.22811e-19)
(0.000861194 4.43825e-05 0)
(0.000535304 0.000303264 4.21141e-20)
(0.000848665 4.91669e-05 -9.45348e-19)
(2.33141e-05 1.72103e-06 9.11395e-19)
(0.000845647 4.65407e-05 9.65808e-19)
(0.000850871 -1.84832e-06 -9.60008e-19)
(0.000735095 -1.02737e-07 -5.6939e-19)
(0.00050578 -6.38809e-05 -5.25826e-19)
(0.00432892 0.00745238 2.47472e-19)
(0.00422306 0.00752976 -2.78812e-19)
(0.00422156 0.00758785 2.66523e-19)
(0.00425582 0.00741051 1.97971e-19)
(0.000845783 -1.84373e-05 1.4391e-19)
(0.00447495 0.00751131 0)
(0.00440275 0.00751644 -3.86796e-19)
(3.52541e-05 -1.68611e-07 -9.98311e-19)
(0.00417068 0.0074693 -6.3364e-20)
(0.00414604 0.00743231 -2.21515e-19)
(0.00602987 0.010607 0)
(0.00654035 0.0111875 3.71316e-20)
(0.00600989 0.0105768 0)
(0.00655605 0.0112111 1.30876e-19)
(0.00599727 0.010601 2.69678e-19)
(0.00659262 0.0112277 1.24618e-20)
(0.00593589 0.0106138 -7.76698e-19)
(0.00662282 0.0111466 8.15445e-21)
(0.00390326 0.00920226 -1.90904e-19)
(0.00418707 0.00748869 3.87156e-21)
(0.00423811 0.00755276 7.9353e-20)
(0.00415044 0.00743453 4.12045e-20)
(0.000866078 0.000187577 4.46895e-20)
(1.28173e-05 1.83726e-06 0)
(0.000684494 -0.000134417 0)
(0.000679829 4.44012e-05 0)
(0.00244251 0.0011115 4.25264e-21)
(0.00074935 -3.09915e-05 1.72649e-19)
(4.2985e-05 6.5542e-06 4.542e-20)
(1.37755e-05 -3.01272e-05 1.6538e-18)
(0.000844347 1.83951e-05 0)
(2.96671e-05 1.37874e-05 -1.91789e-19)
(0.000141651 0.000226843 0)
(2.27384e-05 -1.15923e-06 0)
(1.87087e-05 -1.63044e-06 0)
(0.000812442 0.000132165 1.1365e-20)
(0.000808572 -1.35946e-05 1.78794e-19)
(3.48771e-05 0.000286736 -1.98299e-23)
(0.000159115 0.000275639 -1.84245e-18)
(0.00059729 0.000332444 -8.57254e-20)
(0.000894613 0.000116205 5.9923e-19)
(0.000686214 -0.000277063 6.73433e-19)
(0.000358833 0.0011088 0)
(0.000462286 0.000572669 2.71596e-18)
(9.22804e-05 0.000149861 -1.80349e-18)
(2.77316e-05 2.5739e-07 0)
(0.00081837 -4.95192e-05 3.6337e-20)
(1.80012e-05 3.90195e-05 1.64502e-18)
(0.00090033 2.90883e-05 2.71333e-19)
(5.84346e-06 -5.4286e-05 3.79637e-18)
(0.000929635 3.92828e-05 -2.6915e-19)
(0.00137298 0.000151222 7.47644e-19)
(3.90977e-05 -1.14486e-05 8.25984e-20)
(4.01699e-05 5.04557e-06 -8.59299e-19)
(5.01436e-05 0.000147563 0)
(0.000901302 7.64722e-05 5.9836e-19)
(0.000490505 0.000368822 2.37212e-19)
(0.000704558 1.79447e-05 -3.89196e-20)
(0.00076944 -8.46706e-06 2.56976e-19)
(0.000733253 -0.00020259 0)
(0.00632069 0.0108973 -1.68118e-19)
(0.006379 0.0109744 4.05819e-19)
(0.00616064 0.010732 -6.18377e-19)
(0.00650124 0.0111326 -8.09999e-20)
(3.67041e-05 0.000122146 8.00787e-19)
(0.000909207 5.86841e-05 1.49057e-22)
(0.00641158 0.0110068 -3.86452e-19)
(0.0062818 0.0108473 5.48265e-19)
(0.00608079 0.0106737 -4.16811e-19)
(0.0065218 0.0111651 -6.81517e-20)
(8.25226e-05 0.000521828 -2.01886e-20)
(0.000112571 -0.000203079 -7.92957e-19)
(0.000705051 -1.87713e-05 -7.60272e-19)
(0.000718788 0.000220996 0)
(0.000798592 1.17456e-06 0)
(0.000184484 0.000392765 3.36393e-19)
(0.000595337 0.000525469 -5.41841e-19)
(1.3328e-05 -2.17197e-06 1.78457e-19)
(0.000204077 0.000465878 -7.38602e-19)
(0.00100094 0.000969242 -1.12748e-19)
(0.000735936 0.000167376 0)
(0.000782492 0.000179477 1.31067e-19)
(0.00635563 0.00587437 1.13139e-18)
(0.000739276 0.00112834 8.26832e-20)
(4.10896e-05 4.06203e-05 -7.44943e-20)
(0.000814215 2.37553e-05 0)
(0.000875786 2.60843e-05 -3.57045e-20)
(3.8342e-05 4.25737e-06 -1.96754e-19)
(3.30591e-05 5.70509e-06 1.93048e-19)
(0.000829519 2.28311e-05 5.37094e-19)
(0.000965655 0.000105893 6.58743e-19)
(0.000603073 3.6374e-05 0)
(0.000220388 -0.000311641 -3.98117e-19)
(0.000908578 0.000150706 3.89751e-19)
(2.19314e-05 -7.044e-05 2.03188e-19)
(0.00143943 0.000427044 -2.58035e-18)
(0.000634167 -3.92841e-06 0)
(0.000785218 0.000144837 3.75608e-19)
(9.29658e-05 0.00040116 0)
(0.00118511 0.00816669 4.62168e-19)
(0.000481021 0.000502485 -1.22492e-18)
(0.000543896 0.000993461 -1.83806e-19)
(0.000874333 2.0872e-05 -1.46013e-19)
(1.51749e-05 2.75881e-05 0)
(0.000932314 7.61293e-05 6.11947e-19)
(0.00410698 0.00739547 8.14332e-20)
(0.00417167 0.00747391 4.73151e-20)
(0.00449839 0.0075138 4.54029e-19)
(0.00444405 0.00754086 -3.28322e-19)
(0.00647511 0.0111096 8.10778e-20)
(0.00391533 0.0071466 -9.57293e-22)
(0.00550659 0.00779438 -5.64725e-19)
(0.00409843 0.00737223 5.21728e-21)
(0.00518679 0.00785454 5.11636e-19)
(0.00408031 0.00734066 -4.87063e-20)
(0.0049519 0.00771416 0)
(0.00408581 0.00736486 -8.5642e-20)
(0.00474058 0.00758566 4.9249e-19)
(0.00409893 0.00737622 8.75169e-20)
(0.00457338 0.00752554 0)
(0.00428357 0.00742026 1.39768e-19)
(0.00423968 0.00759932 5.79729e-19)
(0.00446649 0.00752612 -5.53226e-19)
(0.00438709 0.00750403 3.71332e-19)
(0.0042283 0.00752557 3.2283e-19)
(0.00643059 0.0110433 -4.97274e-21)
(0.00411823 0.0074015 3.11627e-20)
(0.00645863 0.011073 0)
(2.67405e-05 7.08427e-06 -1.89925e-19)
(0.00199715 0.00654246 2.28415e-19)
(0.000842464 -3.35799e-05 1.09689e-19)
(0.00085794 1.37026e-05 0)
(2.38349e-06 2.20853e-06 -3.9925e-19)
(2.12891e-05 -0.000166177 6.91877e-19)
(2.47982e-05 6.0216e-05 2.08968e-18)
(0.000819524 0.000179109 -9.01093e-20)
(0.000797095 1.08233e-05 7.06681e-19)
(2.50848e-06 -2.3248e-06 3.10099e-19)
(2.25502e-05 -3.81647e-05 -1.84632e-18)
(0.00075846 2.79283e-05 1.63218e-19)
(0.000861442 0.000125986 -3.07939e-20)
(0.00079861 -9.89756e-06 1.47774e-19)
(0.000403498 0.000675142 0)
(7.47205e-05 -0.000151713 1.15133e-18)
(0.000855231 1.29124e-05 1.52491e-19)
(2.14501e-05 2.59191e-05 0)
(0.000110416 0.00056514 -6.31392e-19)
(0.000604537 0.000600251 1.31831e-18)
(0.000329397 0.000741232 0)
(0.000798532 -1.79368e-05 0)
(0.000797712 5.17543e-06 1.17493e-18)
(1.98684e-05 5.19352e-05 -3.51612e-18)
(1.87149e-05 8.5875e-06 3.73751e-19)
(0.00011545 0.000150327 0)
(5.2574e-05 -4.26853e-05 0)
(6.47914e-05 0.000116746 2.01066e-19)
(0.00092684 0.00018159 3.50563e-19)
(0.000799409 1.56667e-05 -1.39082e-18)
(2.44401e-05 3.58365e-05 0)
(0.000501396 2.07414e-05 -6.03462e-20)
(0.000800692 4.04547e-05 -1.56404e-19)
(0.000833385 2.8702e-05 1.05851e-18)
(0.000258087 0.000543983 6.32413e-19)
(0.000862125 0.000154437 0)
(2.36209e-05 -2.69602e-05 5.38867e-19)
(3.45458e-06 -8.95138e-06 -3.2008e-19)
(0.00101417 2.78568e-05 0)
(0.00103273 0.00225168 0)
(0.000973819 -1.48253e-05 0)
(0.000994726 0.000203178 4.27342e-19)
(0.000814324 -2.84749e-05 -2.83684e-19)
(0.000918704 0.000112667 -6.85035e-19)
(0.000798284 3.39361e-06 0)
(4.31242e-05 7.29048e-05 -1.71624e-19)
(0.000173757 0.000329469 1.08146e-18)
(0.000796337 2.24685e-05 -5.27023e-24)
(0.00107906 0.000204975 -6.69245e-19)
(0.00108981 0.000121729 0)
(3.06528e-06 8.52611e-06 2.51117e-19)
(2.16502e-05 -1.76607e-05 -1.94382e-19)
(0.000604482 3.51255e-05 6.95282e-21)
(2.44764e-05 -9.33077e-05 0)
(0.00104688 0.000250971 9.50287e-19)
(0.00502877 0.00974974 -2.83065e-19)
(0.00312028 0.00962181 1.27223e-18)
(5.98269e-05 -0.000113409 -1.91364e-19)
(6.76972e-05 -7.87056e-05 1.86022e-18)
(0.00119272 0.000236233 1.67224e-19)
(0.00133235 0.00107943 2.34157e-19)
(0.000815366 4.74349e-07 -7.31757e-19)
(0.000206372 0.000952064 -2.38614e-19)
(0.000803933 0.000914533 -2.18648e-19)
(0.000799031 -4.16151e-06 0)
(8.93313e-05 0.000643709 0)
(9.66073e-05 0.000285319 -4.27141e-23)
(0.000724766 -3.5551e-05 -1.68582e-23)
(0.000817836 5.47991e-05 1.50719e-19)
(0.0026278 0.00206642 -1.23182e-18)
(0.00175836 0.00924286 -1.17164e-19)
(0.000831946 4.02505e-05 4.92345e-19)
(0.00632966 0.00404107 -1.75895e-19)
(0.00672083 0.0115576 -1.36538e-20)
(0.00473452 0.00784442 4.93326e-21)
(0.000800207 1.59147e-05 -2.18753e-18)
(0.000830848 1.83977e-05 1.6176e-24)
(1.16144e-05 -9.3893e-06 -3.48143e-19)
(4.73501e-05 9.43169e-05 -3.49398e-19)
(7.1474e-05 0.0002768 8.7567e-19)
(1.28972e-05 1.80446e-05 4.9058e-19)
(8.9857e-05 0.000235545 3.69883e-19)
(0.000822099 3.01447e-05 0)
(0.00534787 0.00949212 1.95038e-20)
(0.00153579 0.000621886 -2.61027e-20)
(0.000820175 2.95056e-05 3.55362e-19)
(4.70113e-05 -8.84739e-05 0)
(0.00184686 0.000739545 5.46246e-19)
(1.1252e-05 9.02163e-06 -2.7025e-19)
(3.62668e-05 3.09411e-05 9.72168e-20)
(0.00131768 0.00138729 6.36648e-19)
(0.000737143 4.3652e-05 1.83178e-19)
(7.78757e-06 -2.35878e-06 -1.70266e-19)
(0.00206571 0.00154985 -1.0564e-18)
(0.000126752 0.000183706 -8.19005e-19)
(0.0039211 0.00848757 -1.09125e-18)
(7.57173e-06 2.12215e-06 8.81739e-20)
(0.000162132 -0.000184285 -1.25336e-18)
(5.71113e-05 -5.94554e-05 4.05798e-20)
(0.00153222 0.000970451 0)
(0.00103324 0.000140091 -4.13744e-22)
(0.000454076 0.000851539 -4.02325e-20)
(0.000801959 2.51962e-05 -2.3378e-19)
(8.71745e-05 0.000189987 7.36302e-19)
(4.06336e-05 -6.66927e-05 4.0417e-19)
(2.00421e-05 1.69255e-05 -9.4744e-20)
(3.42859e-05 9.7944e-05 -3.20399e-19)
(0.000201162 -0.000307017 -5.44754e-19)
(0.00325168 0.0034515 2.77634e-21)
)
;

boundaryField
{
    back
    {
        type            empty;
    }
    ingreso
    {
        type            fixedValue;
        value           uniform (0.0008 0 0);
    }
    salida
    {
        type            zeroGradient;
    }
    front
    {
        type            empty;
    }
    defaultFaces
    {
        type            noSlip;
    }
}


// ************************************************************************* //
